/*--------------------------------*- C++ -*----------------------------------*\
| =========                 |                                                 |
| \\      /  F ield         | OpenFOAM: The Open Source CFD Toolbox           |
|  \\    /   O peration     | Version:  1.7.1                                 |
|   \\  /    A nd           | Web:      www.OpenFOAM.com                      |
|    \\/     M anipulation  |                                                 |
\*---------------------------------------------------------------------------*/
FoamFile
{
    version     2.0;
    format      ascii;
    class       volScalarField;
    location    "200";
    object      epsilon;
}
// * * * * * * * * * * * * * * * * * * * * * * * * * * * * * * * * * * * * * //

dimensions      [0 2 -3 0 0 0 0];

internalField   nonuniform List<scalar> 
4000
(
1.77451e-06
2.1352e-06
2.49253e-06
2.8156e-06
3.08187e-06
3.31972e-06
3.49336e-06
3.54664e-06
3.43046e-06
3.15371e-06
2.86947e-06
2.74498e-06
2.79019e-06
2.94626e-06
3.04624e-06
3.10801e-06
3.08617e-06
2.9342e-06
2.65463e-06
2.30046e-06
1.78847e-06
2.25788e-06
2.64689e-06
3.08432e-06
3.57942e-06
4.10131e-06
4.55847e-06
4.81965e-06
4.77017e-06
4.31617e-06
3.66591e-06
3.34977e-06
3.36987e-06
3.50045e-06
3.61317e-06
3.75598e-06
3.78135e-06
3.58365e-06
3.11623e-06
2.35377e-06
1.82351e-06
2.43061e-06
2.91534e-06
3.39966e-06
4.15333e-06
4.93516e-06
5.56449e-06
5.99573e-06
6.08273e-06
5.69393e-06
4.755e-06
3.86937e-06
3.68914e-06
3.76879e-06
3.92071e-06
3.98947e-06
3.90119e-06
3.70507e-06
3.21457e-06
2.35544e-06
1.88637e-06
2.65253e-06
3.29932e-06
4.02924e-06
4.86843e-06
5.69679e-06
6.54929e-06
7.2235e-06
7.4591e-06
7.13783e-06
6.2534e-06
5.05086e-06
4.25889e-06
4.12564e-06
4.05927e-06
4.03953e-06
3.93893e-06
3.61418e-06
3.05903e-06
2.28115e-06
1.94326e-06
2.85525e-06
3.67935e-06
4.4669e-06
5.32441e-06
6.53363e-06
7.89944e-06
8.9294e-06
9.27621e-06
8.96029e-06
8.09235e-06
6.94213e-06
5.91729e-06
5.28768e-06
4.84909e-06
4.33974e-06
3.93064e-06
3.51676e-06
2.91605e-06
2.17288e-06
1.96565e-06
2.93928e-06
3.74927e-06
4.5686e-06
6.09369e-06
8.27931e-06
1.0443e-05
1.18192e-05
1.21295e-05
1.17191e-05
1.08429e-05
9.74093e-06
8.68854e-06
7.81841e-06
6.985e-06
5.77813e-06
4.53847e-06
3.61371e-06
2.85592e-06
2.10594e-06
1.94772e-06
2.81457e-06
3.62681e-06
5.27921e-06
8.37211e-06
1.19259e-05
1.48547e-05
1.64109e-05
1.65376e-05
1.59426e-05
1.50151e-05
1.38594e-05
1.2645e-05
1.14726e-05
1.02295e-05
8.62458e-06
6.50639e-06
4.43358e-06
3.02426e-06
2.0954e-06
1.88206e-06
2.64566e-06
4.08734e-06
7.77276e-06
1.29284e-05
1.74991e-05
2.09292e-05
2.27916e-05
2.28177e-05
2.19177e-05
2.07024e-05
1.91816e-05
1.75087e-05
1.58965e-05
1.42017e-05
1.2148e-05
9.45391e-06
6.34654e-06
3.76035e-06
2.21786e-06
1.81702e-06
2.851e-06
6.19689e-06
1.24235e-05
1.89768e-05
2.4299e-05
2.78639e-05
2.96808e-05
2.95287e-05
2.81711e-05
2.6671e-05
2.49063e-05
2.29474e-05
2.08621e-05
1.86099e-05
1.60044e-05
1.27588e-05
8.88889e-06
5.07858e-06
2.54384e-06
1.90577e-06
4.09833e-06
1.0381e-05
1.81379e-05
2.39749e-05
2.77653e-05
3.00996e-05
3.13272e-05
3.14052e-05
3.00986e-05
2.87495e-05
2.71748e-05
2.54426e-05
2.35855e-05
2.15623e-05
1.91817e-05
1.60288e-05
1.16981e-05
6.75428e-06
3.03265e-06
2.1352e-06
2.68641e-06
3.23975e-06
3.8926e-06
4.525e-06
5.19381e-06
5.57252e-06
5.59369e-06
5.3114e-06
4.85157e-06
4.47553e-06
4.43693e-06
4.57215e-06
4.46239e-06
4.50847e-06
4.56685e-06
4.50282e-06
4.1855e-06
3.58619e-06
2.79301e-06
2.25788e-06
2.50374e-06
3.00025e-06
3.52799e-06
4.05515e-06
4.64223e-06
5.11589e-06
5.33321e-06
5.26278e-06
4.83554e-06
4.13056e-06
3.72316e-06
3.79137e-06
3.99092e-06
4.02609e-06
3.91714e-06
3.78793e-06
3.56189e-06
3.25829e-06
3.07624e-06
2.43061e-06
2.54891e-06
3.08013e-06
3.7204e-06
4.56726e-06
5.35745e-06
5.84635e-06
6.11209e-06
6.24288e-06
6.16079e-06
5.41376e-06
4.2876e-06
3.92759e-06
4.08471e-06
4.29324e-06
4.2125e-06
3.9282e-06
3.61318e-06
3.32001e-06
3.17069e-06
2.65253e-06
2.84717e-06
3.56565e-06
4.60289e-06
5.68331e-06
6.38018e-06
6.76649e-06
6.9839e-06
7.12143e-06
7.14607e-06
6.85308e-06
5.67839e-06
4.48596e-06
4.28896e-06
4.46267e-06
4.58268e-06
4.37118e-06
3.93493e-06
3.44873e-06
3.09636e-06
2.85525e-06
3.41004e-06
4.52558e-06
5.68942e-06
6.54394e-06
7.17182e-06
7.63069e-06
7.91524e-06
8.03278e-06
7.99113e-06
7.694e-06
6.98736e-06
5.81874e-06
5.05303e-06
4.92102e-06
4.87109e-06
4.69772e-06
4.23119e-06
3.57644e-06
2.96364e-06
2.93928e-06
4.02667e-06
5.14185e-06
6.06102e-06
7.00341e-06
7.99604e-06
8.80391e-06
9.24945e-06
9.33523e-06
9.15207e-06
8.74394e-06
8.09326e-06
7.26111e-06
6.64703e-06
6.24068e-06
5.71986e-06
5.10307e-06
4.37625e-06
3.53212e-06
2.78431e-06
2.81457e-06
3.9989e-06
5.17072e-06
6.67401e-06
8.57537e-06
1.03637e-05
1.14775e-05
1.17896e-05
1.15641e-05
1.11366e-05
1.06922e-05
1.01027e-05
9.34304e-06
8.76018e-06
8.40143e-06
7.79527e-06
6.52402e-06
4.96366e-06
3.56241e-06
2.65277e-06
2.64566e-06
3.94621e-06
6.33913e-06
9.76421e-06
1.33513e-05
1.59069e-05
1.68557e-05
1.6653e-05
1.58162e-05
1.509e-05
1.45626e-05
1.39931e-05
1.31454e-05
1.2229e-05
1.14975e-05
1.07949e-05
9.39225e-06
6.98462e-06
4.35441e-06
2.68869e-06
2.851e-06
5.35089e-06
1.10418e-05
1.77847e-05
2.33407e-05
2.64001e-05
2.7019e-05
2.64274e-05
2.48492e-05
2.36641e-05
2.27904e-05
2.17205e-05
2.04129e-05
1.90204e-05
1.76012e-05
1.6073e-05
1.39452e-05
1.06026e-05
6.35064e-06
2.99966e-06
4.09833e-06
9.72688e-06
1.91905e-05
2.77783e-05
3.42418e-05
3.89442e-05
4.20976e-05
4.39597e-05
4.42738e-05
4.23756e-05
4.00551e-05
3.739e-05
3.45353e-05
3.1588e-05
2.8527e-05
2.51621e-05
2.10496e-05
1.55361e-05
8.8346e-06
3.56714e-06
2.49254e-06
3.23975e-06
3.57882e-06
4.19805e-06
5.08305e-06
5.86326e-06
6.54288e-06
6.76797e-06
6.57076e-06
6.16582e-06
5.88684e-06
5.98279e-06
6.26703e-06
6.30344e-06
6.15115e-06
6.1765e-06
6.04285e-06
5.50661e-06
4.48675e-06
3.14724e-06
2.64689e-06
3.00025e-06
3.38956e-06
3.93571e-06
4.6276e-06
5.19833e-06
5.58779e-06
5.73892e-06
5.64733e-06
5.28625e-06
4.7594e-06
4.54374e-06
4.76356e-06
5.09624e-06
5.23091e-06
5.07867e-06
4.78449e-06
4.37902e-06
3.9117e-06
3.65212e-06
2.91534e-06
3.08013e-06
3.60939e-06
4.28627e-06
5.08893e-06
5.80769e-06
6.30062e-06
6.56712e-06
6.72722e-06
6.66125e-06
5.88978e-06
4.88091e-06
4.60388e-06
4.84376e-06
5.11887e-06
5.10846e-06
4.83271e-06
4.44493e-06
4.03265e-06
3.80561e-06
3.29932e-06
3.56565e-06
4.37945e-06
5.39791e-06
6.47165e-06
7.2149e-06
7.52166e-06
7.64116e-06
7.76541e-06
7.86822e-06
7.6224e-06
6.19102e-06
4.94547e-06
4.77945e-06
5.03708e-06
5.21264e-06
5.06062e-06
4.66406e-06
4.15928e-06
3.73593e-06
3.67935e-06
4.52558e-06
5.67718e-06
6.8534e-06
7.76704e-06
8.28877e-06
8.49021e-06
8.52396e-06
8.53949e-06
8.55274e-06
8.36355e-06
7.67701e-06
6.06696e-06
5.17598e-06
5.17111e-06
5.3117e-06
5.24189e-06
4.82654e-06
4.17377e-06
3.54169e-06
3.74927e-06
5.14185e-06
6.25097e-06
7.18367e-06
7.95167e-06
8.5099e-06
8.83757e-06
8.99324e-06
9.05317e-06
8.9644e-06
8.68471e-06
8.14067e-06
7.28529e-06
6.32625e-06
5.97425e-06
5.85187e-06
5.54314e-06
4.93348e-06
4.06825e-06
3.30152e-06
3.62681e-06
5.17072e-06
6.56902e-06
7.95591e-06
9.16217e-06
9.88899e-06
1.01769e-05
1.02826e-05
1.03304e-05
1.00484e-05
9.56848e-06
9.00799e-06
8.36196e-06
7.94707e-06
7.92673e-06
7.80391e-06
7.02462e-06
5.75193e-06
4.28225e-06
3.18423e-06
4.08734e-06
6.33913e-06
9.40878e-06
1.26968e-05
1.52621e-05
1.61846e-05
1.59007e-05
1.54128e-05
1.47351e-05
1.39363e-05
1.31944e-05
1.24976e-05
1.18304e-05
1.13681e-05
1.15494e-05
1.17906e-05
1.09251e-05
8.62179e-06
5.71306e-06
3.40002e-06
6.19689e-06
1.10418e-05
1.82856e-05
2.55741e-05
3.03975e-05
3.14003e-05
2.9936e-05
2.81901e-05
2.63405e-05
2.52395e-05
2.46419e-05
2.39799e-05
2.30722e-05
2.22845e-05
2.14153e-05
2.0298e-05
1.8207e-05
1.4334e-05
9.13878e-06
4.33483e-06
1.0381e-05
1.91905e-05
2.89773e-05
3.72998e-05
4.41721e-05
4.95203e-05
5.3205e-05
5.57348e-05
5.64573e-05
5.41515e-05
5.08651e-05
4.71607e-05
4.32664e-05
3.93561e-05
3.54096e-05
3.12406e-05
2.65251e-05
2.07356e-05
1.34337e-05
6.13559e-06
2.8156e-06
3.8926e-06
4.19806e-06
4.252e-06
4.98996e-06
5.99752e-06
6.75241e-06
7.10973e-06
7.20394e-06
7.05732e-06
6.99681e-06
7.20146e-06
7.5042e-06
7.66535e-06
7.78312e-06
7.9239e-06
7.66274e-06
6.77757e-06
5.27273e-06
3.36089e-06
3.08432e-06
3.52799e-06
3.93571e-06
4.13631e-06
4.79e-06
5.59929e-06
6.08824e-06
6.15969e-06
6.01655e-06
5.74751e-06
5.4812e-06
5.49638e-06
5.8353e-06
6.2136e-06
6.35551e-06
6.16253e-06
5.70818e-06
5.09786e-06
4.40972e-06
3.94895e-06
3.39966e-06
3.7204e-06
4.28627e-06
4.75882e-06
5.44487e-06
6.17574e-06
6.70226e-06
7.04172e-06
7.27066e-06
7.11926e-06
6.37434e-06
5.59307e-06
5.43943e-06
5.7069e-06
5.95636e-06
5.92684e-06
5.62574e-06
5.16173e-06
4.59166e-06
4.10659e-06
4.02924e-06
4.60289e-06
5.39791e-06
6.25091e-06
7.10833e-06
7.77922e-06
8.14513e-06
8.36538e-06
8.57898e-06
8.63748e-06
8.0854e-06
6.61459e-06
5.52808e-06
5.38869e-06
5.63291e-06
5.7845e-06
5.64271e-06
5.2477e-06
4.67486e-06
4.05778e-06
4.4669e-06
5.68942e-06
6.8534e-06
7.96528e-06
8.90566e-06
9.49615e-06
9.72261e-06
9.75863e-06
9.74658e-06
9.6138e-06
9.16605e-06
8.10837e-06
6.38751e-06
5.50497e-06
5.515e-06
5.69148e-06
5.65092e-06
5.26966e-06
4.61352e-06
3.89739e-06
4.5686e-06
6.06101e-06
7.18367e-06
8.23591e-06
9.19466e-06
9.95419e-06
1.04185e-05
1.06277e-05
1.05915e-05
1.0238e-05
9.62356e-06
8.79449e-06
7.68656e-06
6.44832e-06
6.06912e-06
6.10407e-06
5.96071e-06
5.44954e-06
4.61522e-06
3.79804e-06
5.27921e-06
6.67401e-06
7.95591e-06
9.02132e-06
9.75026e-06
1.05103e-05
1.13992e-05
1.19825e-05
1.19797e-05
1.13728e-05
1.05603e-05
9.75968e-06
8.97258e-06
8.44533e-06
8.16232e-06
8.20644e-06
7.7931e-06
6.76619e-06
5.3293e-06
4.03627e-06
7.77276e-06
9.76421e-06
1.26968e-05
1.51528e-05
1.61896e-05
1.6845e-05
1.70887e-05
1.67888e-05
1.6186e-05
1.53881e-05
1.46407e-05
1.40378e-05
1.34328e-05
1.29634e-05
1.29407e-05
1.3274e-05
1.27822e-05
1.07652e-05
7.79458e-06
4.98348e-06
1.24235e-05
1.77847e-05
2.55741e-05
3.18963e-05
3.42058e-05
3.3392e-05
3.14168e-05
2.96394e-05
2.82002e-05
2.76105e-05
2.74963e-05
2.73694e-05
2.67972e-05
2.59117e-05
2.5254e-05
2.43653e-05
2.24595e-05
1.85707e-05
1.29086e-05
7.26989e-06
1.81379e-05
2.77783e-05
3.72997e-05
4.58138e-05
5.32033e-05
5.93883e-05
6.37243e-05
6.65605e-05
6.77634e-05
6.54179e-05
6.12229e-05
5.64882e-05
5.15999e-05
4.66993e-05
4.178e-05
3.67845e-05
3.15074e-05
2.55413e-05
1.83946e-05
1.02936e-05
3.08188e-06
4.525e-06
5.08305e-06
4.98996e-06
4.71687e-06
5.59775e-06
6.6848e-06
7.35326e-06
7.61773e-06
7.67474e-06
7.77726e-06
8.01462e-06
8.32414e-06
8.68832e-06
9.14361e-06
9.29314e-06
8.76887e-06
7.55003e-06
5.72173e-06
3.45551e-06
3.57942e-06
4.05515e-06
4.6276e-06
4.79e-06
4.75507e-06
5.59679e-06
6.52696e-06
6.84662e-06
6.70156e-06
6.46997e-06
6.3591e-06
6.50074e-06
6.84999e-06
7.15325e-06
7.18851e-06
6.88766e-06
6.29265e-06
5.52913e-06
4.67815e-06
3.9829e-06
4.15333e-06
4.56726e-06
5.08893e-06
5.44487e-06
5.61197e-06
6.26436e-06
7.10369e-06
7.72874e-06
8.00614e-06
7.70528e-06
6.9944e-06
6.41297e-06
6.32542e-06
6.51765e-06
6.63696e-06
6.50186e-06
6.11975e-06
5.56438e-06
4.86862e-06
4.14026e-06
4.86843e-06
5.68331e-06
6.47165e-06
7.10833e-06
7.60957e-06
8.11083e-06
8.66681e-06
9.2354e-06
9.64148e-06
9.43534e-06
8.41642e-06
7.05024e-06
6.18437e-06
6.03606e-06
6.17591e-06
6.21864e-06
6.01107e-06
5.56504e-06
4.92327e-06
4.2002e-06
5.32441e-06
6.54394e-06
7.76704e-06
8.90566e-06
9.803e-06
1.04234e-05
1.0842e-05
1.12149e-05
1.13772e-05
1.09064e-05
9.78552e-06
8.21265e-06
6.68292e-06
5.91683e-06
5.87438e-06
5.99388e-06
5.92553e-06
5.55587e-06
4.9379e-06
4.28149e-06
6.09369e-06
7.00341e-06
7.95167e-06
9.19466e-06
1.05636e-05
1.1738e-05
1.25475e-05
1.30624e-05
1.30168e-05
1.21072e-05
1.06807e-05
9.25446e-06
7.83446e-06
6.67557e-06
6.23961e-06
6.31969e-06
6.29312e-06
5.92769e-06
5.26014e-06
4.62371e-06
8.37211e-06
8.57537e-06
9.16217e-06
9.75026e-06
1.10576e-05
1.29232e-05
1.43214e-05
1.51327e-05
1.50105e-05
1.36657e-05
1.20217e-05
1.06976e-05
9.69809e-06
9.05281e-06
8.57894e-06
8.54944e-06
8.43681e-06
7.77888e-06
6.63201e-06
5.61042e-06
1.29284e-05
1.33513e-05
1.52621e-05
1.61896e-05
1.75024e-05
1.89088e-05
1.94121e-05
1.94381e-05
1.90182e-05
1.78662e-05
1.65255e-05
1.56796e-05
1.50984e-05
1.46942e-05
1.46595e-05
1.45108e-05
1.41811e-05
1.27093e-05
1.00937e-05
7.69635e-06
1.89768e-05
2.33407e-05
3.03975e-05
3.42058e-05
3.47588e-05
3.39828e-05
3.28239e-05
3.17456e-05
3.08198e-05
3.04114e-05
3.01222e-05
3.00925e-05
2.978e-05
2.9015e-05
2.80949e-05
2.71847e-05
2.54073e-05
2.19102e-05
1.64388e-05
1.12413e-05
2.39749e-05
3.42418e-05
4.41721e-05
5.32033e-05
6.15026e-05
6.80459e-05
7.30524e-05
7.68304e-05
7.91666e-05
7.70223e-05
7.13562e-05
6.51006e-05
5.89394e-05
5.3024e-05
4.72977e-05
4.14553e-05
3.5588e-05
2.93374e-05
2.22898e-05
1.42729e-05
3.31972e-06
5.19381e-06
5.86326e-06
5.99752e-06
5.59775e-06
5.22976e-06
6.26557e-06
7.41456e-06
8.03383e-06
8.31014e-06
8.53333e-06
8.82873e-06
9.21545e-06
9.6676e-06
1.007e-05
9.93976e-06
9.11478e-06
7.68959e-06
5.76851e-06
3.43908e-06
4.10131e-06
4.64223e-06
5.19833e-06
5.59929e-06
5.59679e-06
5.61715e-06
6.87674e-06
7.81828e-06
7.8221e-06
7.51555e-06
7.38181e-06
7.47969e-06
7.68793e-06
7.77584e-06
7.59151e-06
7.11327e-06
6.40208e-06
5.57456e-06
4.69247e-06
3.86346e-06
4.93516e-06
5.35745e-06
5.80769e-06
6.17574e-06
6.26436e-06
6.34383e-06
7.7014e-06
9.2044e-06
9.62774e-06
8.96434e-06
7.984e-06
7.34398e-06
7.15467e-06
7.14967e-06
7.05276e-06
6.74418e-06
6.24397e-06
5.6112e-06
4.87934e-06
4.11475e-06
5.69679e-06
6.38018e-06
7.2149e-06
7.77922e-06
8.11083e-06
8.3198e-06
9.4546e-06
1.12962e-05
1.21913e-05
1.11796e-05
9.30917e-06
7.76994e-06
6.92479e-06
6.65389e-06
6.60133e-06
6.46657e-06
6.14286e-06
5.63681e-06
5.00968e-06
4.4369e-06
6.53363e-06
7.17182e-06
8.28877e-06
9.49615e-06
1.04234e-05
1.11208e-05
1.22741e-05
1.42085e-05
1.51777e-05
1.35882e-05
1.08385e-05
8.63243e-06
7.14431e-06
6.40471e-06
6.22287e-06
6.20525e-06
6.06492e-06
5.71265e-06
5.24067e-06
4.93069e-06
8.27931e-06
7.99604e-06
8.5099e-06
9.95419e-06
1.1738e-05
1.34201e-05
1.51641e-05
1.74031e-05
1.81574e-05
1.5911e-05
1.23234e-05
9.71585e-06
8.05001e-06
6.97395e-06
6.4637e-06
6.44695e-06
6.47718e-06
6.29021e-06
5.94669e-06
5.88767e-06
1.19259e-05
1.03637e-05
9.88899e-06
1.05103e-05
1.29232e-05
1.55093e-05
1.78009e-05
2.00458e-05
2.09109e-05
1.83344e-05
1.42401e-05
1.16174e-05
1.02198e-05
9.45295e-06
8.94122e-06
8.63204e-06
8.70013e-06
8.45692e-06
7.8263e-06
7.70682e-06
1.74991e-05
1.59069e-05
1.61846e-05
1.6845e-05
1.89088e-05
2.06728e-05
2.21582e-05
2.37355e-05
2.43942e-05
2.25736e-05
1.90286e-05
1.69162e-05
1.60217e-05
1.56189e-05
1.54711e-05
1.51195e-05
1.45982e-05
1.36896e-05
1.17824e-05
1.07472e-05
2.4299e-05
2.64001e-05
3.14003e-05
3.3392e-05
3.39828e-05
3.4213e-05
3.4315e-05
3.49e-05
3.51426e-05
3.45056e-05
3.24773e-05
3.14587e-05
3.09541e-05
3.027e-05
2.92749e-05
2.81661e-05
2.62983e-05
2.3256e-05
1.84529e-05
1.47487e-05
2.77653e-05
3.89442e-05
4.95203e-05
5.93883e-05
6.80459e-05
7.53668e-05
8.17028e-05
8.74433e-05
9.19535e-05
9.04945e-05
8.21608e-05
7.33773e-05
6.53368e-05
5.80879e-05
5.14195e-05
4.4975e-05
3.84141e-05
3.18283e-05
2.47084e-05
1.68647e-05
3.49336e-06
5.57252e-06
6.54288e-06
6.75241e-06
6.6848e-06
6.26557e-06
6.14073e-06
7.39584e-06
8.52284e-06
9.07836e-06
9.42036e-06
9.76312e-06
1.01164e-05
1.03513e-05
1.03865e-05
9.85587e-06
8.80835e-06
7.341e-06
5.52011e-06
3.3422e-06
4.55847e-06
5.11589e-06
5.58779e-06
6.08824e-06
6.52696e-06
6.87674e-06
7.87073e-06
9.86366e-06
1.02978e-05
9.5208e-06
8.79072e-06
8.46148e-06
8.30356e-06
8.02451e-06
7.53874e-06
6.86262e-06
6.08908e-06
5.30115e-06
4.5287e-06
3.75037e-06
5.56449e-06
5.84635e-06
6.30062e-06
6.70226e-06
7.10369e-06
7.7014e-06
9.61116e-06
1.31733e-05
1.46116e-05
1.29324e-05
1.01836e-05
8.61124e-06
7.94573e-06
7.57956e-06
7.19335e-06
6.67512e-06
6.05911e-06
5.40274e-06
4.75845e-06
4.21228e-06
6.54929e-06
6.76649e-06
7.52166e-06
8.14513e-06
8.66681e-06
9.4546e-06
1.20709e-05
1.72159e-05
2.012e-05
1.75373e-05
1.24272e-05
9.30711e-06
7.87955e-06
7.25874e-06
6.91671e-06
6.55629e-06
6.0973e-06
5.55582e-06
5.04403e-06
4.83689e-06
7.89944e-06
7.63069e-06
8.49021e-06
9.72261e-06
1.0842e-05
1.22741e-05
1.55411e-05
2.18038e-05
2.60468e-05
2.23725e-05
1.49068e-05
1.02817e-05
8.05835e-06
7.03748e-06
6.59654e-06
6.36388e-06
6.10724e-06
5.76761e-06
5.51026e-06
5.7345e-06
1.0443e-05
8.80391e-06
8.83757e-06
1.04185e-05
1.25475e-05
1.51641e-05
1.93302e-05
2.57689e-05
3.06363e-05
2.68365e-05
1.72851e-05
1.14738e-05
8.77567e-06
7.46009e-06
6.79193e-06
6.53268e-06
6.50833e-06
6.44764e-06
6.4649e-06
7.1932e-06
1.48547e-05
1.14775e-05
1.01769e-05
1.13992e-05
1.43214e-05
1.78009e-05
2.23452e-05
2.8141e-05
3.25791e-05
3.01322e-05
1.97571e-05
1.34177e-05
1.08061e-05
9.71154e-06
9.08596e-06
8.59241e-06
8.52289e-06
8.56702e-06
8.47682e-06
9.52171e-06
2.09292e-05
1.68557e-05
1.59007e-05
1.70887e-05
1.94121e-05
2.21582e-05
2.60552e-05
3.09189e-05
3.42722e-05
3.29726e-05
2.42734e-05
1.85074e-05
1.63607e-05
1.56448e-05
1.53021e-05
1.48529e-05
1.39811e-05
1.34027e-05
1.22961e-05
1.29614e-05
2.78639e-05
2.7019e-05
2.9936e-05
3.14168e-05
3.28239e-05
3.4315e-05
3.68778e-05
4.06644e-05
4.31296e-05
4.2582e-05
3.63057e-05
3.23806e-05
3.08112e-05
2.98945e-05
2.87859e-05
2.72437e-05
2.52579e-05
2.25643e-05
1.86475e-05
1.68132e-05
3.00996e-05
4.20976e-05
5.32049e-05
6.37243e-05
7.30524e-05
8.17028e-05
9.04475e-05
9.95131e-05
0.000107353
0.000107845
9.4984e-05
8.20621e-05
7.12024e-05
6.21084e-05
5.42161e-05
4.69758e-05
3.98415e-05
3.29195e-05
2.57173e-05
1.80316e-05
3.54664e-06
5.59369e-06
6.76797e-06
7.10973e-06
7.35326e-06
7.41456e-06
7.39584e-06
7.93509e-06
9.46086e-06
1.04568e-05
1.07994e-05
1.09352e-05
1.08629e-05
1.0648e-05
1.0113e-05
9.26184e-06
8.13209e-06
6.75413e-06
5.13703e-06
3.20839e-06
4.81965e-06
5.33321e-06
5.73892e-06
6.15969e-06
6.84662e-06
7.81828e-06
9.86366e-06
1.41927e-05
1.77571e-05
1.61927e-05
1.21153e-05
9.86934e-06
8.80867e-06
7.97499e-06
7.1494e-06
6.33581e-06
5.57149e-06
4.8802e-06
4.26979e-06
3.68099e-06
5.99573e-06
6.11209e-06
6.56712e-06
7.04172e-06
7.72874e-06
9.2044e-06
1.31733e-05
2.02835e-05
2.7494e-05
2.69021e-05
1.66584e-05
1.10607e-05
8.93642e-06
7.91909e-06
7.1573e-06
6.43137e-06
5.7342e-06
5.10425e-06
4.59987e-06
4.33506e-06
7.2235e-06
6.9839e-06
7.64116e-06
8.36538e-06
9.2354e-06
1.12962e-05
1.72159e-05
2.63296e-05
3.57443e-05
3.6956e-05
2.21685e-05
1.28869e-05
9.35519e-06
7.95927e-06
7.20514e-06
6.58922e-06
5.99189e-06
5.42684e-06
5.04277e-06
5.16593e-06
8.9294e-06
7.91524e-06
8.52396e-06
9.75863e-06
1.12149e-05
1.42085e-05
2.18038e-05
3.15721e-05
4.12283e-05
4.43582e-05
2.7228e-05
1.47102e-05
9.80499e-06
7.93134e-06
7.0741e-06
6.55498e-06
6.12774e-06
5.74973e-06
5.64679e-06
6.28838e-06
1.18192e-05
9.24945e-06
8.99324e-06
1.06277e-05
1.30624e-05
1.74031e-05
2.57689e-05
3.52042e-05
4.37783e-05
4.81497e-05
3.10578e-05
1.63024e-05
1.04663e-05
8.26689e-06
7.25191e-06
6.69634e-06
6.44857e-06
6.37623e-06
6.62053e-06
7.93221e-06
1.64109e-05
1.17896e-05
1.02826e-05
1.19825e-05
1.51327e-05
2.00458e-05
2.8141e-05
3.69185e-05
4.38674e-05
4.84459e-05
3.34218e-05
1.80303e-05
1.20823e-05
1.00461e-05
9.11809e-06
8.45713e-06
8.01386e-06
8.11065e-06
8.3973e-06
1.0331e-05
2.27916e-05
1.6653e-05
1.54128e-05
1.67888e-05
1.94381e-05
2.37355e-05
3.09189e-05
3.92375e-05
4.4706e-05
4.85392e-05
3.52879e-05
2.19545e-05
1.67909e-05
1.51519e-05
1.44272e-05
1.36959e-05
1.27127e-05
1.21007e-05
1.1632e-05
1.36394e-05
2.96808e-05
2.64274e-05
2.81901e-05
2.96394e-05
3.17456e-05
3.49e-05
4.06644e-05
4.84462e-05
5.34816e-05
5.55789e-05
4.36465e-05
3.42304e-05
3.03006e-05
2.85855e-05
2.71533e-05
2.52924e-05
2.30867e-05
2.05078e-05
1.74218e-05
1.72013e-05
3.13271e-05
4.39597e-05
5.57348e-05
6.65605e-05
7.68304e-05
8.74433e-05
9.95131e-05
0.00011274
0.00012394
0.000129102
0.00011045
9.14599e-05
7.66644e-05
6.51732e-05
5.57794e-05
4.76004e-05
4.00051e-05
3.27041e-05
2.54846e-05
1.80646e-05
3.43046e-06
5.3114e-06
6.57076e-06
7.20394e-06
7.61773e-06
8.03383e-06
8.52284e-06
9.46086e-06
1.05788e-05
1.19175e-05
1.23443e-05
1.21526e-05
1.14933e-05
1.05491e-05
9.55738e-06
8.52829e-06
7.40341e-06
6.15332e-06
4.74122e-06
3.05307e-06
4.77017e-06
5.26278e-06
5.64733e-06
6.01655e-06
6.70156e-06
7.8221e-06
1.02978e-05
1.7757e-05
2.48968e-05
2.65842e-05
1.88917e-05
1.19585e-05
9.1189e-06
7.74106e-06
6.70543e-06
5.83125e-06
5.07931e-06
4.44833e-06
3.93893e-06
3.5286e-06
6.08273e-06
6.24288e-06
6.72722e-06
7.27066e-06
8.00614e-06
9.62774e-06
1.46116e-05
2.7494e-05
3.27253e-05
3.55535e-05
2.79551e-05
1.56335e-05
1.02545e-05
8.27424e-06
7.09195e-06
6.17926e-06
5.42138e-06
4.81293e-06
4.39157e-06
4.23905e-06
7.4591e-06
7.12143e-06
7.76541e-06
8.57898e-06
9.64148e-06
1.21913e-05
2.012e-05
3.57443e-05
3.75493e-05
4.15856e-05
3.68172e-05
1.92466e-05
1.14111e-05
8.79527e-06
7.54697e-06
6.65623e-06
5.91795e-06
5.30521e-06
4.95506e-06
5.12317e-06
9.27622e-06
8.03278e-06
8.53949e-06
9.74658e-06
1.13772e-05
1.51777e-05
2.60468e-05
4.12283e-05
4.03649e-05
4.55972e-05
4.36527e-05
2.2029e-05
1.22717e-05
9.03683e-06
7.6701e-06
6.84546e-06
6.20222e-06
5.69826e-06
5.5844e-06
6.24703e-06
1.21295e-05
9.33523e-06
9.05317e-06
1.05915e-05
1.30168e-05
1.81574e-05
3.06363e-05
4.37783e-05
4.16679e-05
4.78391e-05
4.73604e-05
2.36486e-05
1.28911e-05
9.30214e-06
7.81558e-06
6.95833e-06
6.40317e-06
6.14793e-06
6.39942e-06
7.77349e-06
1.65376e-05
1.15641e-05
1.03304e-05
1.19797e-05
1.50105e-05
2.09109e-05
3.25791e-05
4.38674e-05
4.21655e-05
4.86063e-05
4.77703e-05
2.43442e-05
1.38858e-05
1.05005e-05
9.11561e-06
8.19727e-06
7.50584e-06
7.30123e-06
7.73365e-06
9.89187e-06
2.28177e-05
1.58162e-05
1.47351e-05
1.6186e-05
1.90182e-05
2.43942e-05
3.42722e-05
4.4706e-05
4.50576e-05
5.08409e-05
4.7063e-05
2.61505e-05
1.73718e-05
1.45559e-05
1.33376e-05
1.22678e-05
1.11178e-05
1.02534e-05
1.02025e-05
1.2757e-05
2.95287e-05
2.48492e-05
2.63405e-05
2.82002e-05
3.08198e-05
3.51426e-05
4.31296e-05
5.34816e-05
5.74904e-05
6.18722e-05
5.14733e-05
3.65213e-05
2.98906e-05
2.70991e-05
2.51434e-05
2.28911e-05
2.02441e-05
1.757e-05
1.51865e-05
1.58905e-05
3.14052e-05
4.42738e-05
5.64573e-05
6.77634e-05
7.91666e-05
9.19535e-05
0.000107353
0.00012394
0.000135028
0.000145251
0.000124999
9.98447e-05
8.08267e-05
6.68612e-05
5.59902e-05
4.69066e-05
3.88095e-05
3.12429e-05
2.41546e-05
1.70572e-05
3.15371e-06
4.85157e-06
6.16582e-06
7.05732e-06
7.67474e-06
8.31014e-06
9.07836e-06
1.04568e-05
1.19175e-05
1.20663e-05
1.23989e-05
1.25992e-05
1.17175e-05
1.0376e-05
9.18598e-06
8.0715e-06
6.94276e-06
5.75467e-06
4.45433e-06
2.90422e-06
4.31617e-06
4.83554e-06
5.28625e-06
5.74751e-06
6.46997e-06
7.51555e-06
9.5208e-06
1.61927e-05
2.65842e-05
1.89982e-05
1.80719e-05
1.20124e-05
8.67537e-06
7.37271e-06
6.36154e-06
5.49448e-06
4.73307e-06
4.07828e-06
3.55581e-06
3.24302e-06
5.69393e-06
6.16079e-06
6.66125e-06
7.11926e-06
7.70528e-06
8.96433e-06
1.29324e-05
2.6902e-05
3.55535e-05
2.31335e-05
2.78029e-05
1.7132e-05
1.02372e-05
8.08287e-06
6.84892e-06
5.89136e-06
5.09448e-06
4.45582e-06
4.02057e-06
3.82492e-06
7.13783e-06
7.14607e-06
7.86822e-06
8.63748e-06
9.43534e-06
1.11796e-05
1.75373e-05
3.6956e-05
4.15856e-05
2.83044e-05
3.78967e-05
2.09993e-05
1.20078e-05
9.20485e-06
7.80377e-06
6.74392e-06
5.85111e-06
5.12575e-06
4.67718e-06
4.62546e-06
8.96029e-06
7.99113e-06
8.55274e-06
9.6138e-06
1.09064e-05
1.35882e-05
2.23725e-05
4.43582e-05
4.55972e-05
3.42125e-05
4.52697e-05
2.36215e-05
1.31703e-05
9.75668e-06
8.20337e-06
7.17042e-06
6.31619e-06
5.59847e-06
5.30346e-06
5.63208e-06
1.17191e-05
9.15207e-06
8.9644e-06
1.0238e-05
1.21072e-05
1.5911e-05
2.68365e-05
4.81497e-05
4.78392e-05
3.94948e-05
4.88241e-05
2.48256e-05
1.37033e-05
9.93118e-06
8.27821e-06
7.22855e-06
6.43353e-06
5.87287e-06
5.94541e-06
6.95486e-06
1.59426e-05
1.11366e-05
1.00484e-05
1.13728e-05
1.36657e-05
1.83344e-05
3.01322e-05
4.84459e-05
4.86063e-05
4.32033e-05
4.87995e-05
2.48932e-05
1.4235e-05
1.06395e-05
9.04322e-06
7.91319e-06
6.99381e-06
6.45208e-06
6.86389e-06
8.7526e-06
2.19177e-05
1.509e-05
1.39363e-05
1.53881e-05
1.78662e-05
2.25736e-05
3.29726e-05
4.85392e-05
5.08409e-05
4.73304e-05
4.79105e-05
2.59271e-05
1.6918e-05
1.39589e-05
1.24745e-05
1.10861e-05
9.65231e-06
8.54554e-06
8.71076e-06
1.12119e-05
2.81711e-05
2.36641e-05
2.52395e-05
2.76105e-05
3.04114e-05
3.45056e-05
4.2582e-05
5.55789e-05
6.18722e-05
5.91065e-05
5.14051e-05
3.55548e-05
2.86992e-05
2.57476e-05
2.34971e-05
2.08773e-05
1.78431e-05
1.50661e-05
1.29404e-05
1.39069e-05
3.00986e-05
4.23756e-05
5.41515e-05
6.54179e-05
7.70223e-05
9.04945e-05
0.000107845
0.000129102
0.000145251
0.000146337
0.000125344
9.80469e-05
7.80197e-05
6.36073e-05
5.2492e-05
4.32966e-05
3.52891e-05
2.80521e-05
2.13481e-05
1.50492e-05
2.86947e-06
4.47553e-06
5.88684e-06
6.99681e-06
7.77726e-06
8.53333e-06
9.42036e-06
1.07994e-05
1.23443e-05
1.23989e-05
1.24284e-05
1.26442e-05
1.16127e-05
1.0429e-05
9.32373e-06
8.22018e-06
7.0592e-06
5.81906e-06
4.4662e-06
2.86037e-06
3.66591e-06
4.13056e-06
4.7594e-06
5.4812e-06
6.3591e-06
7.38181e-06
8.79072e-06
1.21153e-05
1.88917e-05
1.80719e-05
1.30863e-05
9.26047e-06
7.82468e-06
6.92732e-06
6.12892e-06
5.3727e-06
4.64014e-06
3.94476e-06
3.34484e-06
3.05809e-06
4.755e-06
5.41376e-06
5.88978e-06
6.37434e-06
6.9944e-06
7.984e-06
1.01836e-05
1.66584e-05
2.79551e-05
2.78029e-05
1.80953e-05
1.14754e-05
8.37421e-06
7.11707e-06
6.24587e-06
5.46271e-06
4.71765e-06
4.03646e-06
3.50878e-06
3.33834e-06
6.2534e-06
6.85308e-06
7.6224e-06
8.0854e-06
8.41642e-06
9.30917e-06
1.24272e-05
2.21685e-05
3.68172e-05
3.78967e-05
2.36633e-05
1.3936e-05
9.74623e-06
8.17532e-06
7.2041e-06
6.31869e-06
5.46678e-06
4.67514e-06
4.08779e-06
3.93026e-06
8.09235e-06
7.694e-06
8.36355e-06
9.16605e-06
9.78552e-06
1.08385e-05
1.49068e-05
2.72279e-05
4.36527e-05
4.52697e-05
2.80651e-05
1.59588e-05
1.0909e-05
9.10803e-06
8.11534e-06
7.22501e-06
6.29736e-06
5.35885e-06
4.72485e-06
4.78967e-06
1.08429e-05
8.74394e-06
8.68471e-06
9.62356e-06
1.06806e-05
1.23234e-05
1.72851e-05
3.10578e-05
4.73604e-05
4.88241e-05
3.05864e-05
1.71553e-05
1.15482e-05
9.50909e-06
8.36395e-06
7.39152e-06
6.45187e-06
5.58053e-06
5.29576e-06
5.97691e-06
1.50151e-05
1.06922e-05
9.56848e-06
1.05603e-05
1.20217e-05
1.42401e-05
1.97571e-05
3.34218e-05
4.77703e-05
4.87995e-05
3.13206e-05
1.78411e-05
1.2276e-05
1.01662e-05
8.87437e-06
7.72308e-06
6.65082e-06
5.84808e-06
6.05809e-06
7.65021e-06
2.07024e-05
1.45626e-05
1.31944e-05
1.46407e-05
1.65255e-05
1.90286e-05
2.42734e-05
3.52878e-05
4.7063e-05
4.79105e-05
3.25269e-05
2.00776e-05
1.53682e-05
1.35516e-05
1.2147e-05
1.05473e-05
8.8351e-06
7.46954e-06
7.64942e-06
9.96308e-06
2.6671e-05
2.27904e-05
2.46419e-05
2.74963e-05
3.01222e-05
3.24773e-05
3.63057e-05
4.36465e-05
5.14733e-05
5.14051e-05
3.98369e-05
3.11358e-05
2.7569e-05
2.55969e-05
2.34018e-05
2.05137e-05
1.7069e-05
1.38186e-05
1.16698e-05
1.26549e-05
2.87495e-05
4.00551e-05
5.08651e-05
6.12229e-05
7.13562e-05
8.21608e-05
9.49839e-05
0.00011045
0.000124999
0.000125344
0.000104763
8.49648e-05
6.99046e-05
5.82627e-05
4.87247e-05
4.04781e-05
3.30402e-05
2.62205e-05
1.99505e-05
1.4103e-05
2.74498e-06
4.43693e-06
5.98279e-06
7.20146e-06
8.01462e-06
8.82873e-06
9.76312e-06
1.09352e-05
1.21526e-05
1.25992e-05
1.26442e-05
1.21746e-05
1.1462e-05
1.06959e-05
9.85601e-06
8.87525e-06
7.71237e-06
6.3612e-06
4.81704e-06
2.96093e-06
3.34977e-06
3.72316e-06
4.54374e-06
5.49638e-06
6.50074e-06
7.47969e-06
8.46148e-06
9.86934e-06
1.19585e-05
1.20124e-05
9.26047e-06
7.84858e-06
7.21333e-06
6.66173e-06
6.10804e-06
5.50588e-06
4.84782e-06
4.15562e-06
3.49712e-06
3.13776e-06
3.86937e-06
4.2876e-06
4.88091e-06
5.59307e-06
6.41297e-06
7.34398e-06
8.61124e-06
1.10607e-05
1.56335e-05
1.7132e-05
1.14754e-05
8.25154e-06
6.97887e-06
6.29752e-06
5.74028e-06
5.17054e-06
4.56025e-06
3.9369e-06
3.39382e-06
3.24826e-06
5.05086e-06
5.67839e-06
6.19102e-06
6.61459e-06
7.05024e-06
7.76994e-06
9.30711e-06
1.28869e-05
1.92466e-05
2.09993e-05
1.3936e-05
9.56214e-06
7.63165e-06
6.70003e-06
6.06995e-06
5.47785e-06
4.84792e-06
4.19412e-06
3.65339e-06
3.58937e-06
6.94213e-06
6.98736e-06
7.67701e-06
8.10837e-06
8.21265e-06
8.63243e-06
1.02817e-05
1.47102e-05
2.2029e-05
2.36215e-05
1.59588e-05
1.08556e-05
8.51385e-06
7.47827e-06
6.85376e-06
6.23193e-06
5.51582e-06
4.74449e-06
4.17263e-06
4.28865e-06
9.74094e-06
8.09326e-06
8.14067e-06
8.79449e-06
9.25446e-06
9.71585e-06
1.14738e-05
1.63024e-05
2.36486e-05
2.48256e-05
1.71553e-05
1.17863e-05
9.28508e-06
8.19713e-06
7.55704e-06
6.93163e-06
6.15327e-06
5.25049e-06
4.71513e-06
5.36263e-06
1.38594e-05
1.01027e-05
9.00799e-06
9.75968e-06
1.06976e-05
1.16174e-05
1.34177e-05
1.80303e-05
2.43442e-05
2.48932e-05
1.78411e-05
1.27683e-05
1.04405e-05
9.32706e-06
8.42166e-06
7.45157e-06
6.42028e-06
5.47903e-06
5.37426e-06
6.92588e-06
1.91816e-05
1.39931e-05
1.24976e-05
1.40378e-05
1.56796e-05
1.69162e-05
1.85074e-05
2.19545e-05
2.61505e-05
2.59271e-05
2.00776e-05
1.59066e-05
1.41326e-05
1.30951e-05
1.18573e-05
1.02406e-05
8.42685e-06
6.88196e-06
6.90744e-06
9.11203e-06
2.49063e-05
2.17205e-05
2.39799e-05
2.73694e-05
3.00925e-05
3.14587e-05
3.23806e-05
3.42304e-05
3.65213e-05
3.55548e-05
3.11358e-05
2.81485e-05
2.66023e-05
2.51101e-05
2.29703e-05
2.00509e-05
1.65368e-05
1.31196e-05
1.08686e-05
1.1819e-05
2.71748e-05
3.739e-05
4.71607e-05
5.64882e-05
6.51006e-05
7.33773e-05
8.20621e-05
9.14599e-05
9.98447e-05
9.80469e-05
8.49648e-05
7.21648e-05
6.1429e-05
5.24147e-05
4.45825e-05
3.7501e-05
3.08698e-05
2.46235e-05
1.88234e-05
1.34266e-05
2.79019e-06
4.57215e-06
6.26703e-06
7.5042e-06
8.32414e-06
9.21545e-06
1.01164e-05
1.08629e-05
1.14933e-05
1.17175e-05
1.16127e-05
1.1462e-05
1.1265e-05
1.09388e-05
1.04127e-05
9.62251e-06
8.51258e-06
7.05089e-06
5.20889e-06
3.09874e-06
3.36987e-06
3.79137e-06
4.76356e-06
5.8353e-06
6.84999e-06
7.68793e-06
8.30356e-06
8.80867e-06
9.1189e-06
8.67537e-06
7.82468e-06
7.21333e-06
6.87415e-06
6.61119e-06
6.2838e-06
5.82955e-06
5.24601e-06
4.56321e-06
3.854e-06
3.34406e-06
3.68914e-06
3.92759e-06
4.60388e-06
5.43943e-06
6.32542e-06
7.15467e-06
7.94573e-06
8.93641e-06
1.02545e-05
1.02372e-05
8.37421e-06