/*--------------------------------*- C++ -*----------------------------------*\
| =========                 |                                                 |
| \\      /  F ield         | OpenFOAM: The Open Source CFD Toolbox           |
|  \\    /   O peration     | Version:  1.7.1                                 |
|   \\  /    A nd           | Web:      www.OpenFOAM.com                      |
|    \\/     M anipulation  |                                                 |
\*---------------------------------------------------------------------------*/
FoamFile
{
    version     2.0;
    format      ascii;
    class       volScalarField;
    location    "200";
    object      k;
}
// * * * * * * * * * * * * * * * * * * * * * * * * * * * * * * * * * * * * * //

dimensions      [0 2 -2 0 0 0 0];

internalField   nonuniform List<scalar> 
4000
(
0.000104726
0.000118356
0.000131204
0.000142268
0.00015119
0.000159114
0.0001649
0.000166565
0.00016241
0.00015272
0.000143057
0.000139251
0.000141322
0.00014677
0.000150318
0.000152381
0.000151538
0.000146389
0.00013689
0.000124448
0.000104967
0.000122272
0.000135898
0.000150514
0.000166718
0.000183526
0.000197833
0.000205342
0.000203391
0.000188944
0.000168295
0.000158912
0.000160068
0.000164402
0.000168052
0.000172526
0.000173152
0.000166903
0.000151989
0.000126208
0.00010613
0.000128122
0.000144632
0.000160788
0.000184983
0.000208255
0.00022627
0.00023783
0.000239521
0.000228132
0.000200656
0.00017428
0.000169596
0.000172673
0.000177282
0.000179155
0.00017627
0.000169759
0.000154365
0.000125839
0.000108394
0.000135671
0.000157172
0.000180846
0.000206089
0.000230179
0.000253144
0.000269732
0.000274526
0.000265423
0.000241808
0.000208778
0.000185413
0.000182573
0.000181574
0.000180708
0.000177001
0.000166641
0.000148659
0.000122585
0.000110398
0.000142504
0.000169473
0.000193927
0.000220712
0.000254623
0.000288475
0.000311364
0.000317565
0.000308888
0.000287564
0.00025823
0.000231408
0.000214839
0.000204621
0.000191481
0.000178296
0.000164188
0.000144373
0.000118944
0.000111212
0.00014518
0.000171642
0.000200241
0.000246475
0.000301744
0.000349182
0.000375983
0.000380034
0.000370026
0.000350662
0.000326195
0.000302081
0.000281753
0.000262712
0.000234903
0.000201081
0.000171177
0.000144326
0.000117369
0.00011081
0.000141412
0.000171973
0.000228652
0.000309779
0.000386322
0.000441494
0.000467787
0.000467609
0.000455474
0.000437505
0.000414933
0.000390672
0.000366788
0.000341225
0.000307774
0.000259811
0.000203274
0.000154684
0.000118736
0.00010883
0.000139007
0.000196089
0.000302809
0.000412711
0.000495668
0.000552422
0.000581237
0.000579725
0.000563709
0.000542705
0.00051616
0.00048625
0.000457013
0.000425439
0.000386447
0.000332435
0.000260854
0.000185205
0.000126529
0.000108406
0.000154998
0.000266296
0.000408483
0.000527009
0.000612363
0.000665544
0.00069132
0.00068769
0.000666226
0.000642562
0.000614323
0.000582266
0.000547266
0.000508578
0.000462847
0.000403389
0.000324476
0.000228973
0.000142509
0.000117415
0.000206936
0.000370377
0.000514304
0.000606793
0.000663442
0.000697482
0.000715076
0.000715836
0.000696015
0.000675277
0.000650676
0.000623079
0.0005929
0.000559468
0.000519703
0.000465993
0.000386387
0.000276744
0.000163511
0.000118356
0.000137575
0.000155773
0.00017599
0.000194639
0.000213615
0.000224067
0.00022456
0.000216396
0.000202809
0.000191763
0.00019085
0.000194605
0.000192603
0.00019492
0.00019681
0.000194826
0.000185385
0.000167186
0.000141444
0.000122272
0.000175989
0.000215142
0.000260331
0.000305905
0.000340381
0.000358411
0.000359095
0.000344914
0.000315497
0.000277162
0.000260112
0.00027458
0.000300175
0.000311056
0.000306014
0.000297366
0.000275062
0.000231447
0.000150765
0.000128122
0.000206301
0.000261256
0.000319952
0.000381824
0.000421227
0.000436602
0.00043772
0.000430641
0.000411765
0.000360123
0.000295654
0.000279252
0.000299956
0.000331266
0.0003461
0.000337427
0.000306539
0.000252221
0.000153231
0.000135671
0.000240529
0.000316313
0.00039394
0.000452633
0.000480015
0.000489749
0.00049228
0.000490826
0.000481141
0.000451289
0.000371045
0.000296515
0.000286768
0.000306819
0.000332294
0.000339255
0.000316638
0.000259736
0.00015047
0.000142504
0.000275557
0.00036908
0.000432656
0.000464923
0.000484636
0.000502266
0.000518182
0.000527587
0.00052475
0.000501467
0.000447398
0.000359441
0.000304605
0.000298806
0.000307121
0.000315562
0.000303204
0.000254159
0.000146049
0.00014518
0.000289229
0.00036347
0.000397167
0.000423733
0.000459879
0.000503643
0.000543843
0.000568307
0.000570911
0.000549282
0.000502552
0.000435234
0.000374974
0.000338954
0.000315984
0.00029906
0.000279554
0.000236961
0.000140664
0.000141412
0.000262673
0.000318616
0.000360608
0.000420129
0.00049681
0.000575146
0.000635204
0.000663899
0.000665092
0.00064369
0.000599153
0.000537679
0.000480173
0.000433343
0.000386421
0.000330706
0.000277181
0.000223176
0.00013804
0.000139007
0.000238042
0.000315969
0.00041101
0.000533939
0.00066189
0.00076473
0.000821282
0.000832464
0.00081722
0.000789506
0.000749153
0.000695838
0.000628751
0.000562021
0.000496369
0.000418053
0.000327224
0.000237592
0.000142631
0.000154998
0.000263982
0.000413739
0.000590395
0.00077955
0.000928389
0.00101212
0.00104565
0.00103559
0.000996922
0.000954146
0.00090449
0.000846097
0.000780294
0.00070752
0.000626059
0.000529151
0.000414075
0.000286865
0.000158455
0.000206936
0.000357809
0.000537806
0.000671684
0.000764395
0.000828912
0.000871049
0.000895578
0.000899634
0.000874028
0.000842083
0.000804579
0.00076341
0.000719825
0.000673463
0.000621438
0.000556362
0.000463758
0.000330363
0.000184134
0.000131204
0.000155773
0.000166328
0.000184958
0.000210006
0.00023097
0.000248556
0.00025414
0.000248686
0.000237625
0.000230112
0.000232805
0.000240158
0.000241634
0.000239557
0.000240751
0.000237436
0.000223076
0.000194553
0.000153032
0.000135898
0.000215142
0.000242499
0.000285277
0.000350158
0.000407998
0.000436319
0.000441154
0.000426518
0.000396668
0.000362912
0.000354611
0.000377982
0.00041169
0.000431274
0.000425706
0.000403474
0.000360036
0.000288214
0.000168926
0.000144632
0.000261256
0.000319528
0.000382523
0.000455225
0.000514686
0.000547346
0.000556598
0.000551817
0.000527182
0.000464176
0.000399299
0.000387073
0.00041479
0.000449848
0.000464051
0.000447137
0.00039908
0.000314651
0.000173065
0.000157172
0.000316313
0.000412954
0.000501275
0.000579784
0.000628919
0.000646684
0.000649345
0.000646143
0.000632845
0.000590384
0.000480376
0.000395177
0.000386178
0.000412774
0.000439659
0.000440316
0.000403151
0.000321127
0.000170765
0.000169473
0.00036908
0.000490363
0.000578223
0.000636381
0.000670307
0.000688091
0.000696227
0.000698067
0.000689304
0.000655474
0.000581067
0.000450614
0.000381201
0.000378891
0.000395193
0.000403362
0.000380046
0.000309029
0.000164769
0.000171642
0.00036347
0.000463327
0.000523038
0.000569509
0.000614337
0.000657061
0.000692546
0.000714918
0.000715195
0.000686998
0.000626317
0.000535032
0.000434924
0.000391602
0.000378686
0.000368131
0.000343975
0.000284297
0.000158491
0.000171973
0.000318615
0.00039903
0.000459729
0.000524807
0.000596847
0.000669404
0.000731968
0.00077409
0.000777243
0.000747032
0.000691846
0.000617571
0.000546487
0.000491373
0.000444122
0.000391161
0.000336333
0.000268893
0.000157975
0.000196089
0.000315969
0.000424593
0.000548249
0.000687617
0.000815919
0.000911576
0.000965847
0.000975088
0.000953269
0.000913762
0.000860895
0.000796799
0.0007307
0.000673827
0.000609531
0.0005164
0.000404474
0.00029517
0.000170468
0.000266296
0.000413739
0.000614929
0.000869592
0.00111326
0.00125698
0.0013146
0.00130399
0.00126661
0.00123146
0.00120087
0.00116136
0.0011078
0.00104219
0.000957805
0.000851934
0.000712711
0.00054303
0.000373603
0.000206769
0.000370377
0.000537806
0.000691687
0.000810245
0.000902382
0.000971015
0.00101726
0.00104862
0.00105777
0.00102922
0.00098743
0.000939107
0.000886907
0.000833017
0.000777135
0.000716465
0.000645697
0.000554523
0.000426389
0.000263131
0.000142268
0.00017599
0.000184958
0.000186674
0.000207562
0.000234434
0.000253569
0.000262141
0.000263945
0.000259859
0.000258245
0.00026347
0.000271181
0.000276145
0.000280522
0.000284318
0.000277791
0.000255771
0.000216385
0.000159746
0.000150514
0.000260331
0.000285277
0.000287974
0.000334172
0.000407949
0.000463727
0.000485751
0.000476301
0.000455463
0.00043742
0.000441839
0.00047091
0.000505184
0.0005236
0.000514889
0.000478851
0.000416539
0.00032173
0.000177756
0.000160788
0.000319952
0.000382523
0.000416947
0.000470361
0.000535932
0.000587481
0.000618829
0.000630284
0.000606797
0.000548669
0.000497063
0.000491988
0.000519441
0.000547487
0.000551739
0.000522689
0.000458247
0.000351135
0.000182413
0.000180846
0.00039394
0.000501275
0.000576751
0.000641202
0.000692453
0.000723965
0.000742313
0.000751441
0.00073873
0.000679281
0.000569022
0.000492075
0.000483142
0.000505006
0.000521165
0.000507708
0.000454223
0.000352966
0.000181196
0.000193927
0.000432656
0.000578223
0.000684019
0.000759986
0.000806892
0.000830673
0.000840511
0.000840703
0.000822203
0.000770092
0.000669849
0.000532023
0.000459558
0.000453978
0.000465183
0.000461629
0.000422469
0.000334981
0.000177351
0.000200241
0.000397167
0.000523038
0.000623744
0.000714686
0.000792421
0.000848544
0.000883067
0.000893152
0.000871898
0.000818434
0.000734124
0.000620579
0.00049794
0.000448168
0.000435485
0.000420964
0.000384601
0.00031059
0.000177216
0.000228652
0.000360608
0.000459729
0.000547971
0.000640355
0.00075167
0.00086338
0.000939869
0.000964583
0.000939543
0.000884295
0.000810006
0.000720801
0.000635336
0.000557076
0.000506356
0.000454977
0.000391162
0.00030869
0.000189709
0.000302809
0.00041101
0.000548249
0.000699769
0.000845238
0.000997023
0.00109582
0.00113334
0.00113156
0.00110309
0.00105929
0.00100541
0.000938229
0.00086776
0.000804958
0.000732313
0.000629712
0.000499053
0.000364552
0.000224218
0.000408483
0.000590395
0.000869592
0.00117749
0.0013905
0.00145573
0.00145613
0.00143331
0.00140125
0.00137917
0.00136144
0.00133507
0.00128844
0.00122648
0.0011637
0.00106387
0.000908871
0.000701876
0.000484593
0.000290491
0.000514304
0.000671684
0.000810245
0.000924966
0.001019
0.00109463
0.00114635
0.00118
0.00119466
0.00116759
0.00111744
0.00105921
0.000997307
0.000933333
0.000867161
0.00079767
0.000721604
0.000631285
0.000514387
0.000359925
0.00015119
0.000194639
0.000210006
0.000207562
0.000200281
0.000224186
0.000252031
0.000268296
0.000274426
0.000275591
0.000278106
0.000284138
0.000292149
0.000301558
0.000312339
0.000315383
0.000302992
0.000274066
0.000227893
0.000162532
0.000166718
0.000305906
0.000350158
0.000334172
0.000309662
0.000363843
0.000447634
0.000500354
0.000513816
0.000508092
0.000503641
0.000516006
0.000544804
0.000574169
0.000584398
0.000566053
0.000518074
0.000441852
0.000332709
0.000178894
0.000184983
0.000381824
0.000455225
0.000470361
0.000461823
0.00050351
0.000577731
0.000644025
0.000680095
0.000666109
0.000621295
0.000586336
0.000586294
0.000606639
0.000619674
0.00060757
0.000562702
0.000482381
0.00036093
0.00018444
0.000206089
0.000452633
0.000579784
0.000641202
0.000668302
0.000696541
0.000738912
0.000787596
0.00082328
0.000811909
0.000740792
0.000645656
0.000584128
0.000572489
0.000580765
0.000578188
0.000545581
0.000474668
0.000360252
0.000187398
0.000220712
0.000464923
0.000636381
0.000759986
0.000833162
0.000876031
0.000905734
0.000934085
0.000950455
0.000925079
0.000846932
0.00072572
0.000604261
0.000536354
0.000521757
0.00051893
0.000497927
0.000442006
0.000344365
0.00019192
0.000246475
0.000423733
0.000569509
0.000714686
0.000846152
0.000945684
0.00100994
0.00104772
0.00105345
0.00100917
0.000920225
0.000807783
0.000677817
0.000561722
0.000502961
0.000483796
0.0004609
0.000412967
0.000331522
0.000205878
0.000309779
0.000420129
0.000524807
0.000640355
0.000801603
0.000972779
0.00108938
0.00114634
0.00115121
0.00109518
0.00100483
0.000906774
0.000806534
0.000713707
0.000623665
0.000563638
0.00051331
0.000444773
0.000354185
0.000238774
0.000412711
0.000533939
0.000687617
0.000845238
0.00103674
0.00120272
0.00128031
0.00129931
0.00129094
0.00125066
0.0011876
0.00112427
0.00105655
0.000987167
0.000924994
0.000840819
0.000734493
0.000598868
0.000446722
0.000297157
0.000527009
0.00077955
0.00111326
0.0013905
0.00150829
0.0015599
0.0015667
0.00154971
0.001527
0.00151112
0.00148829
0.00146265
0.00142133
0.00136187
0.00129352
0.00121468
0.00106676
0.000852458
0.000603611
0.000379048
0.000606793
0.000764395
0.000902382
0.001019
0.00112055
0.00119745
0.00125513
0.0012985
0.00132569
0.00130253
0.00123809
0.00116466
0.00108991
0.00101567
0.000941324
0.000862888
0.000780682
0.000688581
0.000577065
0.000435518
0.000159114
0.000213615
0.00023097
0.000234434
0.000224186
0.00021481
0.000241883
0.000270216
0.000284834
0.000291336
0.000296839
0.000304208
0.000313591
0.000323887
0.0003325
0.000328953
0.000310093
0.000276778
0.000228609
0.000161875
0.000183526
0.000340381
0.000407998
0.000407949
0.000363843
0.000335947
0.000412582
0.00050453
0.000545188
0.000552002
0.000555716
0.000570743
0.00059575
0.000616201
0.000612028
0.000579945
0.000521106
0.000437121
0.000324966
0.000176033
0.000208255
0.000421227
0.000514686
0.000535932
0.00050351
0.000470762
0.000548195
0.000671729
0.000740747
0.000734815
0.000694619
0.000665736
0.0006626
0.000669398
0.000662652
0.000630572
0.000568908
0.00047637
0.00035107
0.000185447
0.000230179
0.000480015
0.000628919
0.000692453
0.000696541
0.000676997
0.000725161
0.000840013
0.000924571
0.000904769
0.000816239
0.000726084
0.000670072
0.000648322
0.000636877
0.000611304
0.000558403
0.000473009
0.000354758
0.000196645
0.000254623
0.000484636
0.000670307
0.000806892
0.000876031
0.000900769
0.000940042
0.0010309
0.0011011
0.00105776
0.000928213
0.000791106
0.000679286
0.000611371
0.000580965
0.000558068
0.000518001
0.000448589
0.000349418
0.000213175
0.000301744
0.000459879
0.000614337
0.000792421
0.000945684
0.00105085
0.00112466
0.0012074
0.00125597
0.00118661
0.00102722
0.000869804
0.000734893
0.000626439
0.00055722
0.000523253
0.000489751
0.000434643
0.000354753
0.000242884
0.000386322
0.00049681
0.000596847
0.00075167
0.000972779
0.00115154
0.00126017
0.00133183
0.00137273
0.00129807
0.00113211
0.000986607
0.000872208
0.00077545
0.000684324
0.00060822
0.000557118
0.00049097
0.000403113
0.000292673
0.000495668
0.00066189
0.000815919
0.000997023
0.00120272
0.00134352
0.00141561
0.00145682
0.00148273
0.00143852
0.0013137
0.00120863
0.00113085
0.00106213
0.000996698
0.000914635
0.00080485
0.00067665
0.000523707
0.000364612
0.000612363
0.000928389
0.00125698
0.00145573
0.0015599
0.00162136
0.00164568
0.00166377
0.00167499
0.00166133
0.00159159
0.00153531
0.00148682
0.00142893
0.0013587
0.00127844
0.00115023
0.000947694
0.000693427
0.000444929
0.000663442
0.000828912
0.000971015
0.00109463
0.00119745
0.00128134
0.00135262
0.0014165
0.00146635
0.00145189
0.00136136
0.00126233
0.00116805
0.00107967
0.00099518
0.000910284
0.000820072
0.000724571
0.000613739
0.000479208
0.0001649
0.000224067
0.000248556
0.000253569
0.000252031
0.000241883
0.000239479
0.000270564
0.000297119
0.000310054
0.000318173
0.000326153
0.000333971
0.000338733
0.000338642
0.000326381
0.000302532
0.000267913
0.000221669
0.000158849
0.000197833
0.000358412
0.000436319
0.000463727
0.000447634
0.000412582
0.000422388
0.000531606
0.000608947
0.000622869
0.000618848
0.000624235
0.000636236
0.000635884
0.000609847
0.000562356
0.000495734
0.000411349
0.000307024
0.000173612
0.00022627
0.000436602
0.000547346
0.000587481
0.000577731
0.000548195
0.000586673
0.000756192
0.000893088
0.000889652
0.000809223
0.000751874
0.000727234
0.000710285
0.000679014
0.000625992
0.000549989
0.000451965
0.000333602
0.000189593
0.000253144
0.000489749
0.000646684
0.000723965
0.000738912
0.000725161
0.000776766
0.000980469
0.00116951
0.0011458
0.000976518
0.000837735
0.00075746
0.000712249
0.000675308
0.000625404
0.000554207
0.000459853
0.000346506
0.000209108
0.000288475
0.000502266
0.000688091
0.000830673
0.000905734
0.000940042
0.00100722
0.0012096
0.00142206
0.00137652
0.00112536
0.000911165
0.00077251
0.000687424
0.000633433
0.000587001
0.000528131
0.000449306
0.000355144
0.000235631
0.000349182
0.000503643
0.000657061
0.000848544
0.00100994
0.00112466
0.00122995
0.00140576
0.00160849
0.00156444
0.00125354
0.000989546
0.000816775
0.000698281
0.000614475
0.000557519
0.000509835
0.000450018
0.000377351
0.000275407
0.000441494
0.000575146
0.000669404
0.00086338
0.00108938
0.00126017
0.00138844
0.00153269
0.00169748
0.00168815
0.00137058
0.00109938
0.000937702
0.000827782
0.000732323
0.000645159
0.00058192
0.000519919
0.000442501
0.00033214
0.000552422
0.00076473
0.000911576
0.00109582
0.00128031
0.00141561
0.00152799
0.00164706
0.00176085
0.00177263
0.00152096
0.00129696
0.00117458
0.00109457
0.00102221
0.000940777
0.000829766
0.000711952
0.000571306
0.000405915
0.000665544
0.00101212
0.0013146
0.00145613
0.0015667
0.00164568
0.0017251
0.00182529
0.00190314
0.00191194
0.00173294
0.00158875
0.00150574
0.00143936
0.00136498
0.0012741
0.00116076
0.000974609
0.00073236
0.000478826
0.000697482
0.000871049
0.00101726
0.00114635
0.00125513
0.00135262
0.00144882
0.00154616
0.00162844
0.00163466
0.00150159
0.00136155
0.00123805
0.00112971
0.00103138
0.000937058
0.000839629
0.000739649
0.000627948
0.000497035
0.000166565
0.00022456
0.00025414
0.000262141
0.000268296
0.000270216
0.000270564
0.000284567
0.000319756
0.000341881
0.000349304
0.000351929
0.000349887
0.000344466
0.000332011
0.000312612
0.000286423
0.000253076
0.000210995
0.000154617
0.000205342
0.000359095
0.000441154
0.000485751
0.000500354
0.00050453
0.000531606
0.000613779
0.000765578
0.000820221
0.000750358
0.000702914
0.000675288
0.000635266
0.000585919
0.000526254
0.000456965
0.000377587
0.000286099
0.000171814
0.00023783
0.00043772
0.000556598
0.000618829
0.000644025
0.000671729
0.000756192
0.000905985
0.00115653
0.00127619
0.00105852
0.000882907
0.000795578
0.000738266
0.000677459
0.000605316
0.000519821
0.000422582
0.000316301
0.000193035
0.000269732
0.00049228
0.000649345
0.000742313
0.000787596
0.000840013
0.000980469
0.00117881
0.00147658
0.00165587
0.00133737
0.00102524
0.00086073
0.000771256
0.000702761
0.000629369
0.000543223
0.000444419
0.000339204
0.000217632
0.000311364
0.000518182
0.000696227
0.000840511
0.000934085
0.0010309
0.0012096
0.00141777
0.00171019
0.0019353
0.00156584
0.00113697
0.000898039
0.000769098
0.00068434
0.000612193
0.00053487
0.000448149
0.000359404
0.000248687
0.000375983
0.000543843
0.000692546
0.000883067
0.00104772
0.0012074
0.00140576
0.00160153
0.00185487
0.0021004
0.00173144
0.00122582
0.000939443
0.000781421
0.000674827
0.000592485
0.000524523
0.000457678
0.000390869
0.000290673
0.000467787
0.000635204
0.000731968
0.000939869
0.00114634
0.00133183
0.00153269
0.00172017
0.00192234
0.00215671
0.00183232
0.00131255
0.00102973
0.000880551
0.000771532
0.000673715
0.000588572
0.000525456
0.000457775
0.000346259
0.000581237
0.000821282
0.000965847
0.00113334
0.00129931
0.00145682
0.00164706
0.00184242
0.00199895
0.00218831
0.00188913
0.00144513
0.00121605
0.00110064
0.00101294
0.000921025
0.000814075
0.000701183
0.000577145
0.000415201
0.00069132
0.00104565
0.00130399
0.00143331
0.00154971
0.00166377
0.00182529
0.00202563
0.00216656
0.00227004
0.00197153
0.00166869
0.00150979
0.00141599
0.00132969
0.00122803
0.0011097
0.000944452
0.000722035
0.000482212
0.000715076
0.000895578
0.00104862
0.00118
0.0012985
0.0014165
0.00154616
0.00168318
0.00179546
0.00184624
0.00166305
0.00146546
0.00130192
0.00116759
0.00105186
0.000945794
0.00084185
0.000735822
0.000622976
0.00049567
0.00016241
0.000216396
0.000248686
0.000263945
0.000274426
0.000284834
0.000297119
0.000319756
0.000344935
0.000373348
0.000381729
0.000377201
0.000362937
0.000341853
0.000319354
0.000295498
0.000268619
0.000237352
0.00019953
0.000149323
0.000203391
0.000344914
0.000426518
0.000476301
0.000513816
0.000545188
0.000608947
0.000765578
0.000817705
0.000920549
0.000895577
0.000795212
0.000695057
0.00062187
0.000556093
0.000489571
0.000419931
0.000345929
0.000265211
0.000166356
0.000239521
0.000430641
0.000551817
0.000630284
0.000680095
0.000740747
0.000893088
0.00115653
0.00113756
0.001293
0.0013382
0.00107284
0.000867976
0.000758425
0.00066805
0.000580765
0.000490248
0.000396486
0.000300633
0.000189051
0.000274526
0.000490826
0.000646143
0.000751441
0.00082328
0.000924571
0.00116951
0.00147658
0.00138436
0.00158673
0.0017205
0.00128388
0.000973497
0.000825207
0.000724465
0.000630078
0.000532795
0.000431657
0.0003319
0.000214842
0.000317565
0.000527587
0.000698067
0.000840703
0.000950455
0.0011011
0.00142206
0.00171019
0.00157403
0.001817
0.00200729
0.00143108
0.00103616
0.000847846
0.000732148
0.000636725
0.000542874
0.000447281
0.000358702
0.000245362
0.000380035
0.000568307
0.000714918
0.000893152
0.00105345
0.00125597
0.00160849
0.00185487
0.00171265
0.00198365
0.00217856
0.0015174
0.0010763
0.000862863
0.000731564
0.000627689
0.000537678
0.000458273
0.000390759
0.000283888
0.000467609
0.000663899
0.00077409
0.000964583
0.00115121
0.00137273
0.00169748
0.00192234
0.00181684
0.00209111
0.00223511
0.00155819
0.00113007
0.000928401
0.000800118
0.000688857
0.000588452
0.000510509
0.000448475
0.000333141
0.000579725
0.000832464
0.000975088
0.00113156
0.00129094
0.00148273
0.00176085
0.00199895
0.00197566
0.00221561
0.00223116
0.00160567
0.00125492
0.0010939
0.000985877
0.000879377
0.000767145
0.000655737
0.000547558
0.000394116
0.00068769
0.00103559
0.00126661
0.00140125
0.001527
0.00167499
0.00190314
0.00216656
0.00226432
0.0024307
0.00220574
0.00175589
0.00151156
0.00138098
0.00127595
0.00115975
0.00102732
0.000881092
0.000674431
0.000455164
0.000715836
0.000899634
0.00105777
0.00119466
0.00132569
0.00146635
0.00162844
0.00179546
0.00190356
0.00199923
0.00180853
0.00155555
0.00134992
0.00118861
0.00105522
0.000937159
0.000825358
0.000713727
0.000600697
0.000476133
0.00015272
0.000202809
0.000237625
0.000259859
0.000275591
0.000291336
0.000310054
0.000341881
0.000373348
0.000375909
0.00038254
0.000386295
0.000367512
0.000338128
0.000311047
0.000284772
0.000257115
0.000226565
0.000190882
0.000144035
0.000188944
0.000315497
0.000396668
0.000455464
0.000508092
0.000552002
0.000622869
0.000820221
0.00092055
0.00068462
0.000812046
0.000809139
0.000673624
0.000599457
0.000531124
0.000463497
0.000394349
0.000322528
0.000246361
0.000156021
0.000228132
0.000411765
0.000527182
0.000606797
0.000666109
0.000734815
0.000889652
0.00127619
0.001293
0.000950716
0.00130491
0.00113912
0.000866675
0.000740773
0.000643745
0.000552776
0.000462329
0.000372179
0.000282795
0.000175074
0.000265423
0.000481141
0.000632845
0.00073873
0.000811909
0.000904769
0.0011458
0.00165587
0.00158673
0.00124212
0.00174673
0.00135678
0.00100069
0.000841215
0.000730358
0.000626268
0.000522154
0.000419304
0.000320893
0.000199089
0.000308888
0.00052475
0.000689304
0.000822203
0.000925079
0.00105776
0.00137652
0.0019353
0.001817
0.00154082
0.00206168
0.00149724
0.00107998
0.00088646
0.000761586
0.000654271
0.000549561
0.000445223
0.0003514
0.000227185
0.000370026
0.000570911
0.000715195
0.000871898
0.00100917
0.00118661
0.00156444
0.0021004
0.00198365
0.00180273
0.00223509
0.00156806
0.00111806
0.000902242
0.00076606
0.000652753
0.000549028
0.000454286
0.000379733
0.000261701
0.000455474
0.000665092
0.000777243
0.000939543
0.00109518
0.00129807
0.00168815
0.00215671
0.00209111
0.00199715
0.0022818
0.00158488
0.0011496
0.000942782
0.00080879
0.000689758
0.00057852
0.000484833
0.000424937
0.000305337
0.000563709
0.00081722
0.000953269
0.00110309
0.00125066
0.00143852
0.00177263
0.00218831
0.00221561
0.00217466
0.00227145
0.00160709
0.00124188
0.00107384
0.000955765
0.000836388
0.000712178
0.000597481
0.00050302
0.000360283
0.000666226
0.000996922
0.00123146
0.00137917
0.00151112
0.00166133
0.00191194
0.00227004
0.0024307
0.00240632
0.00222186
0.00173577
0.00147863
0.00134107
0.00122624
0.00109732
0.000950672
0.000803595
0.000611951
0.000415655
0.000696015
0.000874028
0.00102922
0.00116759
0.00130253
0.00145189
0.00163466
0.00184624
0.00199923
0.00200869
0.00181317
0.00153808
0.00131951
0.00115061
0.00101157
0.000888964
0.000774909
0.000664176
0.000552933
0.000437647
0.000143057
0.000191763
0.000230112
0.000258245
0.000278106
0.000296839
0.000318173
0.000349304
0.000381729
0.00038254
0.000383119
0.000387391
0.000365467
0.000339601
0.00031459
0.000288718
0.000260358
0.000228468
0.000191277
0.000142565
0.000168295
0.000277162
0.000362912
0.00043742
0.000503641
0.000555716
0.000618848
0.000750358
0.000895577
0.000812046
0.000738323
0.000698154
0.000631232
0.000574884
0.000517018
0.000455748
0.000389372
0.000317225
0.000238881
0.000149478
0.000200656
0.000360123
0.000464176
0.000548669
0.000621295
0.000694619
0.000809223
0.00105852
0.0013382
0.00130491
0.00110675
0.000921226
0.000769036
0.000679356
0.000601397
0.000521612
0.000437091
0.000349179
0.000260387
0.00015854
0.000241808
0.000451289
0.000590384
0.000679281
0.000740792
0.000816239
0.000976518
0.00133737
0.0017205
0.00174673
0.00141352
0.00108872
0.000882609
0.000771499
0.000681408
0.000588935
0.000492496
0.000393923
0.000297537
0.000177224
0.000287564
0.000501468
0.000655474
0.000770092
0.000846932
0.000928213
0.00112536
0.00156584
0.00200729
0.00206168
0.00163303
0.00120965
0.000961724
0.000834678
0.000739606
0.000644002
0.000541612
0.000434141
0.000332418
0.000202665
0.000350662
0.000549282
0.000686998
0.000818434
0.000920225
0.00102722
0.00125354
0.00173144
0.00217856
0.00223509
0.00176109
0.00128128
0.00100679
0.000865381
0.000758733
0.000654895
0.00054919
0.000444428
0.000358342
0.000235484
0.000437505
0.00064369
0.000747032
0.000884295
0.00100483
0.00113211
0.00137058
0.00183232
0.00223511
0.0022818
0.00180987
0.0013213
0.00105051
0.00090675
0.000791916
0.000677546
0.000563589
0.000461178
0.000395715
0.000278452
0.000542705
0.000789506
0.000913762
0.00105929
0.0011876
0.0013137
0.00152096
0.00188913
0.00223116
0.00227145
0.00184395
0.00139327
0.00116651
0.00104363
0.000932505
0.000807624
0.000673505
0.000550311
0.000464911
0.000332597
0.000642562
0.000954146
0.00120087
0.00136144
0.00148829
0.00159159
0.00173294
0.00197153
0.00220574
0.00222186
0.00189151
0.00158522
0.0014273
0.00132367
0.00121396
0.00107869
0.000919295
0.000756779
0.000571114
0.000390267
0.000675277
0.000842083
0.00098743
0.00111744
0.00123809
0.00136136
0.00150159
0.00166305
0.00180853
0.00181317
0.00160839
0.0013978
0.00122643
0.00108542
0.000962765
0.000850165
0.000741937
0.000635307
0.000528871
0.00041918
0.000139251
0.00019085
0.000232805
0.00026347
0.000284138
0.000304208
0.000326153
0.000351929
0.000377201
0.000386295
0.000387391
0.00037751
0.000362315
0.000345596
0.000326839
0.000304342
0.000276691
0.000242914
0.00020151
0.0001459
0.000158912
0.000260112
0.000354611
0.000441839
0.000516006
0.000570743
0.000624235
0.000702914
0.000795212
0.000809139
0.000698154
0.000635929
0.000599856
0.000562278
0.000519664
0.000468499
0.000406877
0.000334199
0.000250361
0.000152328
0.00017428
0.000295654
0.000399299
0.000497063
0.000586336
0.000665736
0.000751874
0.000882907
0.00107284
0.00113912
0.000921226
0.000766682
0.000684157
0.000626114
0.000569038
0.000504025
0.000428435
0.000343425
0.000252605
0.000155839
0.000208778
0.000371045
0.000480376
0.000569022
0.000645656
0.000726084
0.000837735
0.00102524
0.00128388
0.00135678
0.00108872
0.000877521
0.000753709
0.000672777
0.000603525
0.000530494
0.000449114
0.000360486
0.000269769
0.000166141
0.00025823
0.000447398
0.000581067
0.000669849
0.00072572
0.000791106
0.000911165
0.00113697
0.00143108
0.00149724
0.00120965
0.000963718
0.000813664
0.000721017
0.000647049
0.000569772
0.000483593
0.000390783
0.000300292
0.000187487
0.000326195
0.000502552
0.000626317
0.000734124
0.000807783
0.000869804
0.000989546
0.00122582
0.0015174
0.00156806
0.00128128
0.00102423
0.0008646
0.000765532
0.000686661
0.000606482
0.00051671
0.000419217
0.000329573
0.000218441
0.000414933
0.000599153
0.000691846
0.000810006
0.000906774
0.000986607
0.00109938
0.00131255
0.00155819
0.00158488
0.0013213
0.00108133
0.000934243
0.000836255
0.000743746
0.000643983
0.000538753
0.000436634
0.000363021
0.000260192
0.00051616
0.000749153
0.000860895
0.00100541
0.00112427
0.00120863
0.00129696
0.00144513
0.00160567
0.00160709
0.00139327
0.00119885
0.00108438
0.000997352
0.000898257
0.000777609
0.000643332
0.000516211
0.000431988
0.000313195
0.000614323
0.00090449
0.00116136
0.00133507
0.00146265
0.00153531
0.00158875
0.00166869
0.00175589
0.00173577
0.00158522
0.00145472
0.00136825
0.00128654
0.00118367
0.00105104
0.000891709
0.000725098
0.000542486
0.000372964
0.000650676
0.000804579
0.000939107
0.00105921
0.00116466
0.00126233
0.00136155
0.00146546
0.00155555
0.00153808
0.0013978
0.00125315
0.00112501
0.00101145
0.00090735
0.00080793
0.000709122
0.000609355
0.000508898
0.000405718
0.000141322
0.000194605
0.000240158
0.000271181
0.000292149
0.000313591
0.000333971
0.000349887
0.000362937
0.000367512
0.000365467
0.000362315
0.000358033
0.000350877
0.000339232
0.00032147
0.000295842
0.000260546
0.000212826
0.000150288
0.000160068
0.00027458
0.000377982
0.00047091
0.000544804
0.00059575
0.000636236
0.000675288
0.000695057
0.000673624
0.000631232
0.000599856
0.000580191
0.000561685
0.000535171
0.000494978
0.000438688
0.000365609
0.000275284
0.000159052
0.000169596
0.000279252
0.000387073
0.000491988
0.000586294
0.0006626
0.000727234
0.000795578
0.000867976
0.000866675
0.000769036
0.000684157
0.000633647
0.000597674
0.000559337
0.000508393
0.000441097
0.000358295
0.000263706
0.000160494
0.000185413
0.000296515
0.000395177
0.000492075
0.000584128
0.000670072
0.00075746
0.00086073
0.000973497
0.00100069
0.000882609
0.000753709
0.000663125
0.00060445
0.000554522
0.000498007
0.000428999
0.0003484
0.000262053
0.000167835
0.000231408
0.000359441
0.000450614
0.000532023
0.000604261
0.000679286
0.00077251
0.000898039
0.00103616
0.00107998
0.000961724
0.000813664
0.000697897
0.000618962
0.000557773
0.00049659
0.000427798