/*--------------------------------*- C++ -*----------------------------------*\
| =========                 |                                                 |
| \\      /  F ield         | OpenFOAM: The Open Source CFD Toolbox           |
|  \\    /   O peration     | Version:  1.7.1                                 |
|   \\  /    A nd           | Web:      www.OpenFOAM.com                      |
|    \\/     M anipulation  |                                                 |
\*---------------------------------------------------------------------------*/
FoamFile
{
    version     2.0;
    format      ascii;
    class       surfaceScalarField;
    location    "200";
    object      phi;
}
// * * * * * * * * * * * * * * * * * * * * * * * * * * * * * * * * * * * * * //

dimensions      [1 0 -1 0 0 0 0];

internalField   nonuniform List<scalar> 
11200
(
-0.00179685
0.0035935
-0.00179685
-0.00411967
0.00280293
-0.000480326
-0.00583682
0.0016456
7.13716e-05
-0.00689384
0.000618677
0.000438207
-0.00717156
-0.000674576
0.000952241
-0.00658433
-0.00231608
0.00172886
-0.0053404
-0.00377295
0.00252907
-0.00410868
-0.00424823
0.0030166
-0.00348957
-0.00362582
0.00300677
-0.00379167
-0.00220003
0.0025021
-0.00472704
-0.000747596
0.00168279
-0.00568796
0.000181987
0.000778715
-0.0064165
0.000908539
-0.000180175
-0.00695619
0.00146801
-0.0009285
-0.00710953
0.00175797
-0.00160483
-0.00677407
0.00187162
-0.00220728
-0.00588768
0.00184565
-0.00273224
-0.00445026
0.00175166
-0.00318926
-0.00248975
0.00164143
-0.00360211
0.00162323
-0.00411314
-0.000447427
0.00448816
-0.000447428
-0.00122895
0.00367378
-8.95165e-05
-0.00176274
0.00216043
1.87952e-05
-0.00183684
0.000411103
0.000281566
-0.0011908
-0.00214702
0.000826359
6.6305e-05
-0.00516682
0.00159365
0.00107733
-0.00715056
0.00236671
0.0012593
-0.00732881
0.00289878
0.0004999
-0.00597655
0.00311027
-0.00114983
-0.00355961
0.00300937
-0.003462
-0.00111045
0.00267488
-0.00556177
-3.36319e-05
0.00231512
-0.00686505
0.000449212
0.00176234
-0.00738658
0.00101513
0.000974211
-0.00735826
0.00160292
0.000126553
-0.00691778
0.00192464
-0.000493686
-0.00604012
0.00195874
-0.000990913
-0.00466305
0.00185148
-0.00147703
-0.00270128
0.00169613
-0.00201661
0.00161717
-0.00269535
0.000248255
0.00399149
0.000248255
0.000389701
0.00328315
0.000249027
0.00074671
0.00168231
0.000120965
0.00182181
-0.000832329
0.000168239
0.00360388
-0.00453704
0.000607915
0.00501113
-0.00780458
0.00123062
0.00542538
-0.00926591
0.00170133
0.00494937
-0.00886721
0.00201466
0.0037812
-0.00702872
0.00222053
0.00204146
-0.00414559
0.00232579
-0.000585062
-0.000839853
0.00235586
-0.00367659
0.000558951
0.00249866
-0.00598071
7.20832e-05
0.00268093
-0.0070585
-0.000454007
0.00254668
-0.00718497
-0.00017065
0.00189987
-0.00678417
0.000400011
0.00112367
-0.00594347
0.000725731
0.000392156
-0.0046062
0.000750295
-0.000236221
-0.00267249
0.000574781
-0.000812478
0.000356212
-0.00141164
0.000696014
0.00259933
0.000696014
0.00138524
0.0019503
0.000643491
0.00248717
1.34341e-05
0.00056685
0.00445613
-0.0035882
0.000786841
0.00635488
-0.00768284
0.00124712
0.00725617
-0.0102274
0.00152186
0.0071834
-0.0107693
0.00157652
0.00645381
-0.00969231
0.00155506
0.00535261
-0.00751814
0.00159089
0.00413205
-0.00463548
0.00171057
0.00276572
-0.00129615
0.00182258
0.000125779
0.00103701
0.00216176
-0.00314489
0.000595929
0.00274655
-0.00561265
-0.00126805
0.00328163
-0.00656452
-0.00274157
0.00352277
-0.00636127
-0.00287636
0.00307312
-0.005645
-0.00220083
0.00221022
-0.00442876
-0.00179648
0.00133043
-0.00255671
-0.00177738
0.000480011
-0.00203182
-0.000168763
0.00105626
0.000486706
0.00105626
0.00220664
-0.0004011
0.00120092
0.00395927
-0.00326188
0.00152261
0.00599455
-0.0076922
0.00206876
0.00707633
-0.0111072
0.00234292
0.00709428
-0.0124165
0.00217166
0.00651027
-0.0119529
0.00176822
0.00576038
-0.0103507
0.00140872
0.00508401
-0.00811692
0.00127549
0.00470415
-0.00564819
0.00139275
0.00468524
-0.00292961
0.00165241
0.00437488
-0.000619774
0.00196704
0.00237158
4.15999e-05
0.00255757
-0.000937128
-0.00141982
0.0034606
-0.00380994
-0.00399404
0.00412557
-0.00501544
-0.00610228
0.0044319
-0.00486493
-0.00638184
0.00403082
-0.00395003
-0.00580333
0.00309201
-0.00235223
-0.00543711
0.00206189
-0.0055313
0.00114719
0.00148943
-0.00249225
0.00148943
0.00307727
-0.00405108
0.00206204
0.00480873
-0.00784689
0.00285353
0.00568712
-0.0119317
0.0033615
0.00535134
-0.0139544
0.00318379
0.00445768
-0.0140543
0.00253233
0.00371794
-0.0129809
0.00176848
0.00347468
-0.0113078
0.00120089
0.00369688
-0.00934321
0.0010044
0.00446193
-0.00758094
0.00116788
0.00569943
-0.00572017
0.00155314
0.00696777
-0.0039631
0.002075
0.00730278
-0.00296921
0.00267583
0.00579825
-0.00322671
0.00331162
0.00263294
-0.00483285
0.00400472
-0.000684111
-0.00744831
0.00466421
-0.0024899
-0.00947211
0.00489715
-0.00271255
-0.00993981
0.00435977
-0.00182784
-0.00961564
0.00329399
-0.00953387
0.00217473
0.00168379
-0.00585992
0.00168379
0.00301002
-0.00806169
0.00268433
0.00353217
-0.0119552
0.0035864
0.00270333
-0.0147993
0.00369732
0.00120212
-0.0154425
0.00299043
0.000135364
-0.01493
0.00194343
0.000109666
-0.0138424
0.000887829
0.00107957
-0.0124197
0.000142271
0.00255041
-0.010841
2.70556e-05
0.0045212
-0.00978744
0.000235748
0.00677212
-0.00876927
0.000798156
0.00897427
-0.00764606
0.00148077
0.0105517
-0.00673343
0.00218683
0.0108285
-0.00631494
0.00281151
0.00937612
-0.00669498
0.00331493
0.00627374
-0.0080918
0.00374694
0.00271419
-0.0102108
0.00429997
0.000243545
-0.011971
0.0045035
-0.000563696
-0.0126031
0.00379539
-0.0126664
0.00256901
0.000946704
-0.00775339
0.000946705
0.00090027
-0.0103079
0.00229272
-0.000387318
-0.0136333
0.00296651
-0.00251317
-0.0150438
0.00237192
-0.00403856
-0.0148497
0.000933859
-0.0040895
-0.0143669
-0.000511525
-0.00276785
-0.0137483
-0.00141563
-0.000420303
-0.0127921
-0.0019751
0.00226246
-0.0115513
-0.00197256
0.00516761
-0.0109831
-0.0017096
0.00812856
-0.0104829
-0.00124754
0.0108709
-0.0097491
-0.000639455
0.0130895
-0.00896556
1.33384e-05
0.0143035
-0.0083565
0.000827391
0.0142134
-0.00810484
0.00150013
0.0125265
-0.00845588
0.00205168
0.00929165
-0.00958157
0.00260711
0.00532062
-0.0111385
0.00314055
0.00192304
-0.0124093
0.00320538
-0.0130947
0.00235185
-0.000811674
-0.00613005
-0.000811674
-0.00307376
-0.00850884
0.00046356
-0.00586264
-0.0107188
-0.000124053
-0.00808134
-0.0112269
-0.0015967
-0.00869485
-0.0110648
-0.00317068
-0.00762082
-0.0109316
-0.00450915
-0.00514049
-0.0107341
-0.0054946
-0.00157159
-0.0102708
-0.00609048
0.00229233
-0.00950979
-0.0059057
0.00617503
-0.00933375
-0.0055324
0.00978478
-0.00914194
-0.00495097
0.0128936
-0.00870689
-0.00415138
0.0153465
-0.0081268
-0.00329195
0.0170078
-0.00753768
-0.00248041
0.0177052
-0.00705552
-0.00174688
0.0171497
-0.006823
-0.0010771
0.0149822
-0.00699349
-0.000419592
0.0109428
-0.00763219
0.00053496
0.00555338
-0.00844044
0.00142259
-0.00915379
0.0016134
-0.0030649
-0.0030649
-0.00771648
-0.00385604
-0.0116661
-0.00676742
-0.0135068
-0.00938529
-0.0132217
-0.0113497
-0.0112128
-0.0129407
-0.00769188
-0.0142554
-0.00295334
-0.0150097
0.00251765
-0.0149812
0.00746032
-0.0142768
0.0117363
-0.0134183
0.0151944
-0.0121654
0.0178644
-0.0107971
0.019757
-0.00943066
0.0208384
-0.00813728
0.0209447
-0.0069294
0.0196357
-0.005684
0.0160701
-0.0040651
0.00944522
-0.00181346
0.000292738
-0.000480325
0.00280293
-0.00411967
-0.00206357
0.00316629
-0.00206357
-0.00394846
0.0024812
-0.000525134
-0.00537281
0.0012236
0.0006388
-0.00605536
-9.77368e-05
0.0017324
-0.00602971
-0.00126573
0.00296888
-0.00537155
-0.00230004
0.00417092
-0.00451884
-0.00277973
0.00494363
-0.00398549
-0.00257803
0.00505146
-0.00410804
-0.00183684
0.00446143
-0.00474126
-0.00107463
0.0033905
-0.00537528
-0.000718357
0.0021309
-0.00593818
-0.000380767
0.0007633
-0.00627097
0.000176617
-0.000772522
-0.00632942
0.000728153
-0.00227473
-0.0059686
0.000843974
-0.00341227
-0.00507338
0.000666507
-0.00429415
-0.00366046
0.000429973
-0.00503231
-0.00182126
0.000269425
-0.00571088
0.000482567
-0.00641711
-8.9516e-05
0.00367378
-0.00122895
-0.000426318
0.0038397
-0.000426319
-0.00077571
0.00305846
-0.000209256
-0.000946416
0.00157473
0.000100991
-0.00079072
-0.000271684
0.000844504
-0.00020056
-0.00232088
0.00205858
0.000328779
-0.00374822
0.00328556
0.000312266
-0.00416461
0.00430022
-0.0004687
-0.00356089
0.00487416
-0.00194777
-0.00221724
0.00486885
-0.00389655
-0.000818841
0.00436776
-0.00553129
-0.000431106
0.00366242
-0.0064671
-0.000521635
0.00283882
-0.00679654
-0.000341226
0.00182131
-0.00670252
0.000100484
0.000660026
-0.00620023
0.000243953
-0.000396114
-0.00538385
0.000184576
-0.00132552
-0.0041627
-4.90159e-05
-0.00221932
-0.00241066
-0.00032436
-0.00317498
-0.000292198
-0.00433135
0.000249026
0.00328315
0.000389701
0.000601092
0.00313541
0.000601092
0.00115747
0.0022063
0.000416593
0.00210067
0.00046113
0.000338506
0.00346014
-0.00176541
0.000742082
0.0045821
-0.00369359
0.00148135
0.00499514
-0.00471804
0.00225815
0.00453971
-0.00471594
0.00302149
0.00327157
-0.00377278
0.00370062
0.0012104
-0.0020066
0.00417634
-0.00158868
1.70303e-06
0.00433432
-0.00439034
0.000626481
0.00424256
-0.00613559
-0.000232068
0.0041364
-0.00679841
-0.000996802
0.00386492
-0.00667321
-0.00133477
0.00320979
-0.00619417
-0.00134433
0.00223278
-0.0054035
-0.00141431
0.00120025
-0.00421087
-0.00164833
0.000170361
-0.00247432
-0.00195392
-0.00091957
-0.00211604
-0.00206219
0.000643491
0.0019503
0.00138524
0.00152429
0.00137368
0.00152429
0.00282491
5.22437e-05
0.00142018
0.004661
-0.00202778
0.00143957
0.00655116
-0.0040742
0.00166572
0.00778548
-0.00527127
0.00186529
0.00810424
-0.00549455
0.00203439
0.00751893
-0.00487812
0.00230266
0.00619026
-0.00359269
0.00273956
0.00431735
-0.00168922
0.00326613
0.00180801
0.000599363
0.00373421
-0.00157636
0.00199815
0.00417438
-0.00459811
0.000882644
0.00465345
-0.00623857
-0.00118592
0.00511112
-0.00658632
-0.00274984
0.00528559
-0.00610158
-0.00360928
0.00485335
-0.00526994
-0.00395851
0.00392274
-0.00408871
-0.00428307
0.00278388
-0.00240704
-0.00471563
0.00155999
-0.0050692
0.0003773
0.00120092
-0.0004011
0.00220664
0.00269786
-0.00162032
0.00269787
0.00466021
-0.00343301
0.00304543
0.00683505
-0.00542626
0.0032924
0.00851929
-0.00666488
0.00324949
0.00939267
-0.00683871
0.00286594
0.00942505
-0.00612819
0.00236972
0.00875011
-0.00487226
0.00207799
0.0075836
-0.00331332
0.00216276
0.00617883
-0.0014685
0.00257684
0.00460772
0.000655719
0.00316714
0.0023851
0.00242259
0.00376514
-0.000888119
0.00207107
0.00464238
-0.00373696
-0.000470277
0.00559388
-0.00528375
-0.00346633
0.00638913
-0.00553054
-0.00566752
0.00673729
-0.00488397
-0.00689471
0.00632072
-0.00378133
-0.00756919
0.0052756
-0.00223063
-0.0081626
0.00395817
-0.00874975
0.0025971
0.00206204
-0.00405108
0.00307727
0.00409149
-0.00567929
0.00409149
0.00614675
-0.00750609
0.0048714
0.00778974
-0.00881169
0.00510418
0.00866793
-0.00897582
0.00461692
0.00884713
-0.00811094
0.00362579
0.00853874
-0.00659968
0.00254871
0.00789345
-0.00484984
0.00182399
0.00711313
-0.00318595
0.00165749
0.00642385
-0.00160245
0.00199116
0.00594516
4.46281e-06
0.00268306
0.0054339
0.00149769
0.00351109
0.00407576
0.00171381
0.00439117
0.00148714
-3.60999e-05
0.00546627
-0.00127529
-0.0032323
0.0065337
-0.00304329
-0.00650751
0.00727305
-0.0034939
-0.00905198
0.00750588
-0.00297645
-0.0105978
0.00687143
-0.00183167
-0.011572
0.00555888
-0.0123508
0.00394416
0.00268433
-0.00806169
0.00301002
0.00456233
-0.00943522
0.00456233
0.00592347
-0.0107593
0.00547883
0.00643414
-0.0110395
0.00541501
0.00621084
-0.0101872
0.00442574
0.0057657
-0.00869246
0.00297063
0.00546717
-0.0069752
0.00156221
0.00524507
-0.00520446
0.000719136
0.00522948
-0.00364399
0.000500733
0.00557069
-0.00253057
0.000822647
0.00632135
-0.00153198
0.00158388
0.00724971
-0.000575308
0.0026253
0.00771734
-0.00025927
0.00369215
0.00699026
-0.00116283
0.00466537
0.0048938
-0.00327411
0.00545362
0.00215764
-0.00624454
0.00622118
-6.71174e-05
-0.00940188
0.00687612
-0.00104596
-0.0119582
0.00684399
-0.000981299
-0.0136816
0.00584098
-0.0147722
0.00400932
0.00229272
-0.0103079
0.00090027
0.00316801
-0.0111854
0.00316801
0.00319605
-0.011648
0.00382799
0.00232249
-0.0108489
0.00305589
0.00126184
-0.00954754
0.00135558
0.000658256
-0.00814041
-0.000459669
0.00109424
-0.00660482
-0.00222198
0.002101
-0.00500745
-0.00317898
0.00335893
-0.00370302
-0.00317163
0.00500583
-0.00330673
-0.00258053
0.00694696
-0.00315092
-0.00156993
0.00884917
-0.00289971
-0.000217477
0.0103387
-0.00269842
0.000962698
0.0109931
-0.00294641
0.00195641
0.0103424
-0.00387017
0.00274692
0.00825302
-0.00554999
0.00344714
0.00526605
-0.00798591
0.0041795
0.00248525
-0.0107707
0.00473569
0.000628795
-0.0131306
0.00451208
-0.0146398
0.00284876
0.000463559
-0.00850884
-0.00307375
-0.000577087
-0.00910314
-0.000577086
-0.00256513
-0.00849092
-0.00129175
-0.00455538
-0.00719972
-0.0032548
-0.00549819
-0.00622012
-0.0055551
-0.00502173
-0.00546017
-0.00766604
-0.00329841
-0.00466079
-0.00916225
-0.00055119
-0.00361544
-0.01023
0.00240426
-0.0025515
-0.010013
0.00550574
-0.00275582
-0.00918511
0.0084995
-0.00315553
-0.00794045
0.0111298
-0.00326361
-0.00641815
0.0132407
-0.00324058
-0.00486097
0.0146372
-0.00326232
-0.00356141
0.0150107
-0.00346542
-0.00252543
0.0139787
-0.00400605
-0.00158889
0.0112669
-0.00509011
-0.00060277
0.00747538
-0.00687034
0.00042784
0.00341458
-0.00893899
0.00129371
-0.0104307
0.000819707
-0.00385604
-0.00771648
-0.00840673
-0.00840672
-0.0119814
-0.0116827
-0.0137047
-0.0148616
-0.0135848
-0.01769
-0.0117696
-0.0202165
-0.00835078
-0.0223354
-0.00349352
-0.0234828
0.00240532
-0.0234319
0.00774401
-0.0223717
0.0120386
-0.0208688
0.0154415
-0.0188323
0.0180282
-0.0166248
0.019791
-0.0144561
0.0206396
-0.0124517
0.0203473
-0.0106434
0.0184735
-0.00890021
0.0144274
-0.00688827
0.0079509
-0.00427373
-0.00218563
7.13723e-05
0.0016456
-0.00583683
-0.000525132
0.0024812
-0.00394846
-0.00218015
0.00330983
-0.00218016
-0.00392146
0.00273635
-0.000356445
-0.00513798
0.00144123
0.00150753
-0.00561398
0.000179148
0.00326561
-0.00552594
-0.00074662
0.00482942
-0.00518804
-0.0013197
0.00592538
-0.00498411
-0.00142471
0.0062722
-0.00514832
-0.00112741
0.00575296
-0.00558246
-0.000763815
0.00458831
-0.0059418
-0.00061283
0.00310289
-0.00611261
-0.000470674
0.00140459
-0.00620512
-0.000173027
-0.000507187
-0.0061701
8.31611e-05
-0.00239312
-0.00574859
-1.5394e-07
-0.0038338
-0.00479326
-0.000308883
-0.00494075
-0.00331329
-0.00063197
-0.00588045
-0.00147086
-0.000780748
-0.00677269
-0.000210545
-0.00767754
1.87954e-05
0.00216042
-0.00176274
-0.000209256
0.00305846
-0.000775711
-0.000409308
0.00370974
-0.000409308
-0.000529358
0.00320028
-0.000243079
-0.000552467
0.0018794
0.000429289
-0.00051529
0.000452664
0.00174776
-0.000542859
-0.000805238
0.00337167
-0.000946166
-0.00148482
0.00486863
-0.00186064
-0.00147632
0.00584023
-0.00322011
-0.000926833
0.00602769
-0.00478221
-0.000307213
0.00547313
-0.00598739
-0.000302998
0.00455759
-0.00657247
-0.000567609
0.00352065
-0.00664217
-0.000650413
0.00236822
-0.00638829
-0.000624066
0.0011132
-0.00590557
-0.000755085
-0.000124046
-0.00514516
-0.00112579
-0.00126915
-0.00398328
-0.00160061
-0.00241267
-0.00232562
-0.00195428
-0.00365919
-0.00173758
-0.00513
0.000120965
0.00168231
0.00074671
0.000416593
0.0022063
0.00115747
0.00101871
0.00250533
0.00101871
0.00186253
0.00204484
0.000649973
0.00284359
0.000970504
0.000669772
0.00365477
-0.000117392
0.00124013
0.003874
-0.000985735
0.00221935
0.0032716
-0.00127699
0.00341603
0.00185807
-0.000970952
0.00460876
-0.000278021
-9.90248e-05
0.00548459
-0.00279853
0.000835308
0.00571222
-0.00503408
0.000741285
0.00543368
-0.00633254
-0.000215162
0.00508224
-0.0067352
-0.00102508
0.0046421
-0.00652155
-0.00158498
0.00395695
-0.00600697
-0.00206119
0.00302419
-0.00525139
-0.00263951
0.00195829
-0.00412389
-0.00334789
0.000790063
-0.00247793
-0.00402153
-0.000498351
-0.00439078
-0.00188697
0.00056685
1.34322e-05
0.00248717
0.00142018
5.22427e-05
0.00282491
0.00263812
6.93134e-05
0.00263813
0.00414731
-0.000228727
0.00220383
0.00576283
-0.000880497
0.00190111
0.00694651
-0.00125856
0.0018227
0.00728028
-0.00129524
0.0020101
0.00672314
-0.00100474
0.00258753
0.0053355
-0.000349684
0.00350592
0.00327093
0.000724516
0.00450713
0.000444207
0.00205981
0.00533636
-0.00282477
0.00239642
0.00578813
-0.00528721
0.000855
0.00604562
-0.00647068
-0.0010257
0.00629514
-0.00661792
-0.00250679
0.00635462
-0.0061151
-0.00367449
0.00596384
-0.00529067
-0.00469342
0.00515223
-0.00415273
-0.00578538
0.0040834
-0.0025012
-0.00695156
0.00283847
-0.00796927
0.00145458
0.00152261
-0.00326189
0.00395927
0.00304543
-0.00343301
0.00466021
0.00476737
-0.00337464
0.00476737
0.00665472
-0.00328261
0.0044589
0.00822467
-0.00298662
0.00378568
0.00920524
-0.00237514
0.00300199
0.00944971
-0.00156473
0.00239475
0.00892281
-0.000678142
0.00227831
0.00768692
0.000299091
0.00274986
0.00591993
0.00144767
0.00362065
0.00378351
0.00275511
0.0046082
0.000785328
0.00363953
0.00552011
-0.00260045
0.00251006
0.0063731
-0.00488932
-0.000293516
0.00715063
-0.00590734
-0.00295513
0.00785569
-0.00586371
-0.00515884
0.00817828
-0.0051377
-0.00695158
0.0078531
-0.00400579
-0.0085844
0.00694288
-0.00241716
-0.0102491
0.00566716
-0.0118942
0.0041049
0.00285353
-0.00784689
0.00480873
0.0048714
-0.00750609
0.00614676
0.00666636
-0.00696445
0.00666636
0.00820323
-0.0061031
0.00638794
0.00929207
-0.00480871
0.00535034
0.00984496
-0.00321605
0.00391395
0.00985966
-0.00162767
0.00259704
0.00935051
-0.00023546
0.0018905
0.00834828
0.000995285
0.00196354
0.00709027
0.00202965
0.00266716
0.00578803
0.00300681
0.00373353
0.0043312
0.00374316
0.00486418
0.00193596
0.00335493
0.00594146
-0.000956535
0.00087929
0.00718617
-0.00308235
-0.00244263
0.00814743
-0.00411315
-0.00577329
0.00891892
-0.00412376
-0.00858516
0.00915075
-0.00341458
-0.0109606
0.00853898
-0.00214342
-0.0131729
0.0072119
-0.0152995
0.00520631
0.0035864
-0.0119552
0.00353217
0.00547883
-0.0107593
0.00592347
0.00676055
-0.00952748
0.00676055
0.00751483
-0.007872
0.00643003
0.00784686
-0.00581206
0.00509739
0.00793864
-0.00353948
0.00320248
0.007886
-0.001354
0.00134126
0.00757764
0.000565465
0.000226579
0.00708876
0.00191185
7.29997e-05
0.00667453
0.00246637
0.000800069
0.00648364
0.00276633
0.00201513
0.00643304
0.00300617
0.00341274
0.00608428
0.00269117
0.00470451
0.00462756
0.0011954
0.00580597
0.00236035
-0.00153591
0.00681446
0.000132275
-0.00503569
0.00771251
-0.0013008
-0.00856671
0.00829182
-0.00176686
-0.0117725
0.00812302
-0.00144434
-0.0146389
0.00698523
-0.0172926
0.00455841
0.00296651
-0.0136333
-0.000387319
0.00382799
-0.011648
0.00319605
0.00387805
-0.00962684
0.00387805
0.00344841
-0.00739554
0.0030096
0.00296877
-0.00509318
0.00111658
0.00295158
-0.00278606
-0.00119591
0.00339403
-0.000804574
-0.00321399
0.00401257
0.0011616
-0.00439385
0.00463132
0.00243494
-0.00431367
0.00551333
0.00234302
-0.0033394
0.0066271
0.001918
-0.00183558
0.00788894
0.00167689
-0.000150279
0.00887538
0.00128518
0.00138198
0.00923603
0.00023513
0.00255578
0.0083722
-0.00127741
0.00335218
0.00633821
-0.00363754
0.00408334
0.00378673
-0.00664945
0.00481475
0.00155263
-0.0100618
0.00526062
0.000180926
-0.0135538
0.00480012
-0.0166539
0.00239186
-0.000124053
-0.0107188
-0.00586263
-0.00129175
-0.00849092
-0.00256513
-0.00304419
-0.00612114
-0.00304419
-0.00445876
-0.00430933
-0.00492628
-0.00495705
-0.00286219
-0.00728803
-0.0041638
-0.00142239
-0.00982332
-0.0023981
5.7856e-05
-0.0117907
0.00018121
0.00131166
-0.0129597
0.00287422
0.00229848
-0.0125699
0.00555948
0.00180737
-0.011335
0.00808511
0.00102636
-0.00957475
0.0103383
0.000552584
-0.00754737
0.0122448
0.000167351
-0.00565003
0.0134802
-0.000375705
-0.0041863
0.0138545
-0.0011746
-0.00300296
0.0129046
-0.0021803
-0.00209637
0.0104772
-0.00357876
-0.00124572
0.0069224
-0.00571136
-0.000366587
0.00301681
-0.00871407
0.00036138
-0.0120066
-0.000809401
-0.00676742
-0.0116661
-0.0116827
-0.0119814
-0.0147432
-0.0147432
-0.0160183
-0.0178961
-0.0155465
-0.0210245
-0.0133573
-0.0238285
-0.0093722
-0.026263
-0.00381227
-0.0277314
0.00275863
-0.0277047
0.00857763
-0.0263836
0.0131147
-0.0243798
0.0165929
-0.0217583
0.0191766
-0.0190415
0.0208793
-0.0165349
0.0216239
-0.0143714
0.0212332
-0.0124334
0.0193588
-0.0106049
0.0154836
-0.00872404
0.00907499
-0.00657752
-0.00511519
0.000438207
0.000618675
-0.00689384
0.000638801
0.00122359
-0.00537282
-0.000356443
0.00273635
-0.00392146
-0.00234127
0.00396943
-0.00234127
-0.00407286
0.00327482
-3.591e-05
-0.00508348
0.00200271
0.00227337
-0.00564232
0.000915792
0.00447236
-0.00588154
4.21913e-05
0.00612231
-0.0061223
-0.000285191
0.00679806
-0.00645613
-0.000310837
0.0063975
-0.00680105
-0.000215652
0.00514872
-0.00697501
-0.000174187
0.00345083
-0.00695898
-0.000129196
0.00151754
-0.00687869
-7.05669e-05
-0.000517122
-0.00668222
-0.000173588
-0.00241619
-0.00611068
-0.000544118
-0.00386139
-0.00499822
-0.00103081
-0.00502253
-0.00334732
-0.00146713
-0.00606432
-0.00135121
-0.00166035
-0.00710854
-0.000797688
-0.00823115
0.000281567
0.000411101
-0.00183684
0.000100991
0.00157472
-0.000946416
-0.000243078
0.00320028
-0.000529359
-0.000473044
0.00442914
-0.000473044
-0.000661956
0.00417543
-0.000282619
-0.000841938
0.00312365
0.000806633
-0.00126571
0.00202146
0.00268964
-0.00216895
0.00114118
0.0046728
-0.00338358
0.000655611
0.00611399
-0.00471943
0.000545786
0.00650683
-0.00595173
0.00054138
0.00594826
-0.0067567
0.000255997
0.0049322
-0.00700945
-0.000148774
0.0037928
-0.00686861
-0.000454645
0.00261129
-0.00652097
-0.00079669
0.00138852
-0.00602295
-0.00133449
0.000168166
-0.00525551
-0.00203975
-0.00102777
-0.00408637
-0.00280402
-0.00224501
-0.00243103
-0.00339248
-0.00358246
-0.00324622
-0.00511252
0.000168239
-0.000832332
0.00182181
0.000338506
0.000461128
0.00210067
0.000649973
0.00204483
0.00186253
0.00126116
0.00320657
0.00126116
0.00200188
0.00347797
0.00062633
0.00254554
0.00307961
0.000740336
0.00255745
0.00252445
0.00170432
0.00176064
0.00208917
0.00326475
0.000126925
0.00191632
0.00498169
-0.00201033
0.00200694
0.00616061
-0.00411528
0.00196009
0.00639834
-0.00578375
0.0012806
0.0060774
-0.00665027
0.000210848
0.00558898
-0.00681366
-0.000689042
0.00503976
-0.00655054
-0.00145848
0.00435551
-0.00606609
-0.00230431
0.00350947
-0.00536
-0.00334147
0.00255384
-0.0042975
-0.00457319
0.00149669
-0.00266464
-0.00582318
0.000299452
-0.00679842
-0.000999416
0.00078684
-0.0035882
0.00445613
0.00143957
-0.00202778
0.004661
0.00220383
-0.000228728
0.00414731
0.00328795
0.00103819
0.00328795
0.00446542
0.00192619
0.00227528
0.00538682
0.00236144
0.00161934
0.00567849
0.00260511
0.00163764
0.00508897
0.00281191
0.00245421
0.00359385
0.00306485
0.00385241
0.00140708
0.00340677
0.00529399
-0.00124781
0.00364019
0.00631104
-0.00391268
0.00299605
0.00673743
-0.00576604
0.00122421
0.00688551
-0.00657158
-0.0005639
0.00697546
-0.00660881
-0.00200386
0.0069372
-0.00616609
-0.0033998
0.00661662
-0.00542859
-0.00493562
0.0060089
-0.00436412
-0.00674523
0.00519101
-0.00273328
-0.00880874
0.00419324
-0.01101
0.00293299
0.00206876
-0.0076922
0.00599455
0.0032924
-0.00542626
0.00683505
0.0044589
-0.00328261
0.00665472
0.00565435
-0.00135276
0.00565435
0.00681441
0.000266567
0.00428516
0.0076801
0.0015504
0.00294725
0.00797842
0.00263066
0.0020708
0.00749148
0.00351304
0.00206403
0.00619408
0.00416197
0.00295005
0.00431721
0.00459849
0.0043057
0.00202458
0.00489486
0.00564604
-0.0008149
0.00464526
0.00671026
-0.00364444
0.002935
0.0074918
-0.00540212
0.000199913
0.00814451
-0.00609244
-0.00215805
0.00870031
-0.00597084
-0.00434324
0.0090003
-0.00531598
-0.00655274
0.00881558
-0.00426231
-0.00900284
0.00814705
-0.00268398
-0.011787
0.00706732
-0.0149425
0.00535366
0.0033615
-0.0119317
0.00568712
0.00510418
-0.00881169
0.00778974
0.00638794
-0.0061031
0.00820324
0.00746531
-0.0035074
0.00746531
0.00832959
-0.00109564
0.0058483
0.00885477
0.00105269
0.00388647
0.00894802
0.00292696
0.00220744
0.00847197
0.00443558
0.00144393
0.0073993
0.00535864
0.00183944
0.00599658
0.00562955
0.0030387
0.00447395
0.00562876
0.00452214
0.00271893
0.00537004
0.00589428
0.000223916
0.00427928
0.00709211
-0.00224213
0.00166555
0.00818672
-0.00384374
-0.00151347
0.00910474
-0.00449716
-0.00460515
0.0098347
-0.00438007
-0.00757463
0.0100561
-0.00368368
-0.0106813
0.00952162
-0.00241872
-0.0140775
0.00823803
-0.0179105
0.00575609
0.00369732
-0.0147993
0.00270333
0.00541501
-0.0110395
0.00643414
0.00643003
-0.007872
0.00751483
0.00705381
-0.00475473
0.00705381
0.00746076
-0.00171857
0.00531347
0.00763794
0.00118111
0.0028969
0.00762547
0.00365207
0.000628545
0.00738137
0.00558893
-0.000682795
0.00681312
0.00654434
-0.000544588
0.00621234
0.00635403
0.000676221
0.00574312
0.0057656
0.00234734
0.00534654
0.00517361
0.00400558
0.00469655
0.00424896
0.00538465
0.00314612
0.00256214
0.00645975
0.00105709
-0.000179304
0.00756955
-0.00066462
-0.0035973
0.00842689
-0.00166311
-0.00717005
0.00888651
-0.00198107
-0.0108509
0.00861154
-0.00164052
-0.0147767
0.0073448
-0.0192408
0.00424903
0.00237192
-0.0150438
-0.00251317
0.00305589
-0.0108489
0.00232249
0.0030096
-0.00739554
0.00344841
0.0027255
-0.00418633
0.0027255
0.00258047
-0.00119558
0.000738578
0.00277863
0.00170164
-0.0019148
0.00342298
0.00410887
-0.00431535
0.00423181
0.00607515
-0.00568914
0.00486378
0.00705328
-0.00545481
0.00560074
0.00631205
-0.00403462
0.00649423
0.00510992
-0.00207363
0.00742874
0.00417704
-8.84737e-05
0.00815088
0.00334858
0.00155997
0.00830336
0.0022403
0.00272487
0.00752582
0.000411826
0.00353843
0.00574236
-0.00194856
0.00421818
0.00358027
-0.0050177
0.00482508
0.00159408
-0.00866384
0.00506082
0.000306853
-0.013021
0.00433312
-0.0178569
0.00131622
-0.0015967
-0.0112269
-0.00808134
-0.0032548
-0.00719972
-0.00455538
-0.00492628
-0.00430933
-0.00445876
-0.00595211
-0.00213493
-0.00595211
-0.00612653
3.00943e-05
-0.00833967
-0.00501543
0.00163838
-0.0108715
-0.00271034
0.00309781
-0.0130851
0.000315837
0.00456883
-0.0144799
0.00328522
0.00569336
-0.0141797
0.00608255
0.00478075
-0.0126014
0.00855652
0.00343313
-0.0103722
0.0106387
0.00251654
-0.00796936
0.012338
0.00185024
-0.0058513
0.0134948
0.00118341
-0.00428654
0.013776
0.000383105
-0.00325592
0.0130167
-0.000894974
-0.00239098
0.010942
-0.00246364
-0.0017251
0.00758556
-0.00456423
-0.00110915
0.0035835
-0.00777442
-0.000881714
-0.0125087
-0.00257209
-0.00938528
-0.0135068
-0.0148616
-0.0137047
-0.0178961
-0.0160183
-0.0189638
-0.0189638
-0.0180338
-0.0219248
-0.0152793
-0.0249451
-0.0107351
-0.0277097
-0.00432129
-0.0295768
0.00340181
-0.0297348
0.0100241
-0.0282255
0.0148712
-0.025794
0.0183369
-0.0227078
0.0207651
-0.0196198
0.0223212
-0.0169081
0.0230122
-0.0146796
0.0225677
-0.0128843
0.0206964
-0.0111976
0.0169677
-0.0095597
0.0105474
-0.00793087
-0.00707464
0.000952241
-0.000674578
-0.00717156
0.00173241
-9.77373e-05
-0.00605536
0.00150753
0.00144123
-0.00513798
-3.59074e-05
0.00327482
-0.00407286
-0.00252125
0.00497044
-0.00252125
-0.00425648
0.00401352
-5.12206e-06
-0.00535414
0.0026647
0.00290516
-0.00628451
0.00165933
0.00539322
-0.00715978
0.000965547
0.00670766
-0.00787963
0.000631388
0.00648581
-0.00831438
0.000522568
0.00506072
-0.00844072
0.000469781
0.00310718
-0.0083444
0.000382481
0.00103853
-0.00807265
0.000130734
-0.000919806
-0.00763307
-0.000355275
-0.00250066
-0.00681046
-0.000951911
-0.00373223
-0.00548894
-0.00156097
-0.00478319
-0.00365375
-0.00211853
-0.00578108
-0.00145634
-0.00246122
-0.00684479
-0.00163365
-0.00805388
0.000826359
-0.00214703
-0.0011908
0.000844505
-0.000271686
-0.00079072
0.00042929
0.00187939
-0.000552468
-0.000282617
0.00417543
-0.000661956
-0.00083185
0.00606866
-0.000831851
-0.00130618
0.00584021
-0.000545951
-0.00200776
0.00478245
0.00127329
-0.00322989
0.00371074
0.00384337
-0.00474776
0.00278543
0.00581186
-0.00618748
0.00212416
0.00645364
-0.00722795
0.00159731
0.00591383
-0.00772114
0.00104088
0.0048541
-0.00771259
0.000478212
0.00368833
-0.00742935
-9.00722e-05
0.00254869
-0.00702038
-0.000793994
0.00141813
-0.00646389
-0.00165242
0.000312066
-0.00564509
-0.00264288
-0.000764748
-0.00443429
-0.00371986
-0.00185454
-0.00273052
-0.00471501
-0.00303248
-0.00517742
-0.00429924
0.000607915
-0.00453705
0.00360388
0.000742082
-0.00176541
0.00346014
0.000669772
0.000970503
0.00284359
0.00062633
0.00347797
0.00200188
0.000909172
0.00550275
0.000909172
0.00120251
0.00616164
0.000125349
0.00102497
0.00594743
0.000716694
-8.31614e-05
0.00543946
0.002644
-0.00192937
0.00480148
0.00481171
-0.00387565
0.00409337
0.00613755
-0.00553731
0.00323356
0.0064236
-0.00665815
0.00211546
0.00612349
-0.00711769
0.000898746
0.00562783
-0.00706743
-0.000168642
0.00506794
-0.00675545
-0.0011721
0.00442153
-0.00629231
-0.00231183
0.00370567
-0.00562651
-0.00370874
0.00295385
-0.00460692
-0.00541793
0.00217516
-0.00296552
-0.00739487
0.00133795
-0.00955111
0.000408839
0.00124712
-0.00768284
0.00635488
0.00166572
-0.0040742
0.00655116
0.00190111
-0.000880498
0.00576283
0.00227528
0.00192618
0.00446542
0.00290544
0.00424224
0.00290544
0.00351536
0.00573393
0.00143694
0.00365797
0.00648812
0.000954138
0.00289058
0.00676654
0.00189434
0.00116812
0.00663505
0.00374115
-0.0010204
0.00612651
0.00544922
-0.00319162
0.00521659
0.00649909
-0.00504107
0.00376557
0.00693663
-0.00623493
0.00189472
0.00708328
-0.00668781
0.0001321
0.00712751
-0.00660596
-0.00137435
0.00705755
-0.006203
-0.00293819
0.00684002
-0.00554632
-0.00483097
0.00647449
-0.00454945
-0.00721148
0.0059878
-0.00294725
-0.0101438
0.00534018
-0.0137861
0.00422093
0.00234292
-0.0111072
0.00707633
0.00324949
-0.00666489
0.00851929
0.00378568
-0.00298663
0.00822467
0.00428516
0.000266567
0.00681441
0.00491654
0.00297937
0.00491654
0.0054947
0.00520378
0.00289907
0.00571394
0.0068788
0.00146071
0.00515189
0.0079838
0.00140865
0.00372061
0.00833439
0.00268182
0.00179432
0.00789556
0.00446277
-0.000330511
0.00697634
0.00601096
-0.00253492
0.00557613
0.00710397
-0.00446167
0.00346668
0.00784651