/*--------------------------------*- C++ -*----------------------------------*\
| =========                 |                                                 |
| \\      /  F ield         | OpenFOAM: The Open Source CFD Toolbox           |
|  \\    /   O peration     | Version:  1.7.1                                 |
|   \\  /    A nd           | Web:      www.OpenFOAM.com                      |
|    \\/     M anipulation  |                                                 |
\*---------------------------------------------------------------------------*/
FoamFile
{
    version     2.0;
    format      ascii;
    class       volVectorField;
    location    "200";
    object      U;
}
// * * * * * * * * * * * * * * * * * * * * * * * * * * * * * * * * * * * * * //

dimensions      [0 1 -1 0 0 0 0];

internalField   nonuniform List<vector> 
4000
(
(-0.00297844 0.00973379 -0.00297845)
(-0.00995184 0.00709647 -0.000668439)
(-0.0177355 0.00376588 -0.000630892)
(-0.0228088 0.00125814 -0.000292935)
(-0.0255649 -0.00148318 0.000951276)
(-0.0244375 -0.00522865 0.00310659)
(-0.0203315 -0.00888363 0.00526635)
(-0.0155343 -0.0105222 0.006506)
(-0.0123482 -0.00930578 0.00639249)
(-0.0121807 -0.00592481 0.00483973)
(-0.0148359 -0.00212212 0.00212191)
(-0.0180829 0.000924343 -0.00109446)
(-0.0206515 0.00284799 -0.00366913)
(-0.0230919 0.0036802 -0.00463674)
(-0.0244362 0.00458787 -0.00572889)
(-0.024241 0.00496443 -0.00691664)
(-0.0221021 0.00486536 -0.00814192)
(-0.0179247 0.00466874 -0.00937062)
(-0.0122813 0.00464413 -0.0106371)
(-0.00382928 0.00504758 -0.0123461)
(-0.000794073 0.0138554 -0.000794077)
(-0.00278281 0.0112419 -0.000141399)
(-0.00581506 0.00671948 -0.000118361)
(-0.00723923 0.00201893 0.000778659)
(-0.00645901 -0.00417143 0.00241531)
(-0.00222017 -0.0126743 0.00432627)
(0.00275629 -0.0195356 0.00599366)
(0.00502542 -0.0210853 0.00692269)
(0.00395162 -0.0175524 0.00714568)
(-0.000464176 -0.0103224 0.00673454)
(-0.00821453 -0.00331308 0.00594953)
(-0.0163876 0.000499816 0.00513384)
(-0.0219719 0.00365334 0.00303383)
(-0.0247661 0.00621796 0.000148139)
(-0.0256256 0.00696328 -0.00156215)
(-0.0248774 0.00717526 -0.00284353)
(-0.0226001 0.00700866 -0.00396605)
(-0.0186124 0.00656348 -0.00515735)
(-0.0129413 0.00601145 -0.00659404)
(-0.00485493 0.00573639 -0.00847494)
(0.000371277 0.0151586 0.000371276)
(0.00121821 0.0126402 0.000263969)
(0.00140992 0.00733386 -3.69242e-05)
(0.00339675 0.000410382 0.000336633)
(0.00866867 -0.0102044 0.00175874)
(0.0151303 -0.0217755 0.00346132)
(0.0187606 -0.0281864 0.00433335)
(0.0187097 -0.0281929 0.00453684)
(0.0156967 -0.0229513 0.00452119)
(0.0105759 -0.0139338 0.00444176)
(0.00315809 -0.00366644 0.0042801)
(-0.00815729 1.79066e-05 0.00526709)
(-0.0174237 -0.000182834 0.00640626)
(-0.023028 0.00170857 0.00570785)
(-0.0249174 0.00494644 0.00289908)
(-0.0243757 0.00578914 0.000673867)
(-0.0222313 0.00577731 -0.000820822)
(-0.0183781 0.00529072 -0.00219343)
(-0.0127156 0.0045382 -0.00368508)
(-0.00516303 0.00395596 -0.005313)
(0.00106099 0.0121526 0.00106099)
(0.00360712 0.00986792 0.000858801)
(0.00586652 0.00412494 0.000652009)
(0.0110498 -0.00559643 0.00140492)
(0.0185644 -0.0193056 0.0031148)
(0.0239392 -0.0300743 0.00397076)
(0.0254783 -0.0341653 0.00364891)
(0.0239924 -0.0319751 0.00287684)
(0.0206738 -0.0251699 0.00235785)
(0.0164987 -0.015138 0.00226501)
(0.0121378 -0.00339831 0.00227527)
(0.00609624 0.00368213 0.00285947)
(-0.00563801 0.000326396 0.00535715)
(-0.0155608 -0.00439844 0.00768655)
(-0.0215057 -0.00517092 0.00826974)
(-0.0228238 -0.0020082 0.00601191)
(-0.0211412 -0.000250714 0.00305607)
(-0.0176043 -0.00016418 0.000882381)
(-0.0121916 -0.000765614 -0.000894338)
(-0.00510275 -0.00182652 -0.00244304)
(0.00165835 0.00607792 0.00165835)
(0.00545562 0.00383406 0.00177276)
(0.00979325 -0.00353803 0.00240476)
(0.0170529 -0.0174881 0.00428519)
(0.0229418 -0.0314495 0.00543117)
(0.0247961 -0.0388805 0.00466421)
(0.0236053 -0.0392963 0.00284179)
(0.0211968 -0.0346136 0.00117878)
(0.0187309 -0.0268129 0.000407843)
(0.0168437 -0.0172653 0.00049445)
(0.0162943 -0.0063419 0.00103548)
(0.015926 0.00256368 0.0016842)
(0.0125319 0.00333366 0.0030853)
(0.00276049 -0.00495083 0.00606668)
(-0.00863602 -0.0136023 0.0089187)
(-0.0158134 -0.01651 0.0101679)
(-0.0179004 -0.0138153 0.00833931)
(-0.0157745 -0.011671 0.0051592)
(-0.011134 -0.0112103 0.00241706)
(-0.00474529 -0.0120005 0.000384776)
(0.0023945 -0.00266711 0.0023945)
(0.00763997 -0.00653508 0.00337664)
(0.0136175 -0.0181255 0.00544046)
(0.0186923 -0.0339035 0.00710354)
(0.0193641 -0.0442858 0.00617728)
(0.016686 -0.0469758 0.00340631)
(0.0136379 -0.0440555 0.000428116)
(0.0120678 -0.0379776 -0.0015241)
(0.0123008 -0.0303699 -0.00201233)
(0.0139679 -0.0227326 -0.00153934)
(0.0175839 -0.0144846 -0.00055713)
(0.0220897 -0.00697747 0.000740845)
(0.0251579 -0.00353411 0.00227975)
(0.023645 -0.00625406 0.00403531)
(0.0156182 -0.0149611 0.00617942)
(0.00303082 -0.0253942 0.00912959)
(-0.00644829 -0.0291265 0.0105548)
(-0.0101451 -0.0276779 0.00888416)
(-0.00862391 -0.026088 0.00570114)
(-0.00379096 -0.0260418 0.00290945)
(0.00294671 -0.0149668 0.00294671)
(0.00851085 -0.0217148 0.00501984)
(0.0122563 -0.0359445 0.00729643)
(0.0112598 -0.0488855 0.0068375)
(0.00628679 -0.0537789 0.0033146)
(0.00124071 -0.0527664 -0.000901169)
(-0.000418188 -0.0486821 -0.00418255)
(0.00158023 -0.0431155 -0.00587956)
(0.00630552 -0.0368301 -0.00587048)
(0.0121243 -0.0318428 -0.00512555)
(0.0194859 -0.0267333 -0.00400032)
(0.0273308 -0.0215089 -0.00246902)
(0.0341085 -0.017757 -0.000700874)
(0.0377685 -0.0168873 0.00109803)
(0.0361696 -0.0198916 0.00284521)
(0.0282598 -0.0272927 0.00476035)
(0.0157725 -0.036013 0.00743487)
(0.00399101 -0.0401297 0.00907886)
(-0.00203399 -0.040137 0.0074546)
(-0.00166597 -0.0398767 0.0044929)
(0.00215755 -0.0247585 0.00215755)
(0.00454085 -0.033495 0.00478189)
(0.00214935 -0.0467799 0.00554066)
(-0.0053541 -0.0547688 0.00178728)
(-0.0126645 -0.0555352 -0.003846)
(-0.0153502 -0.0537452 -0.00826761)
(-0.0125033 -0.0507035 -0.0113005)
(-0.00607399 -0.0466664 -0.0130725)
(0.00333586 -0.0418437 -0.0128974)
(0.012847 -0.0390562 -0.0118899)
(0.0229163 -0.0365177 -0.0104515)
(0.0329554 -0.0333748 -0.00855376)
(0.0417409 -0.0303503 -0.0065718)
(0.0479458 -0.0281059 -0.00464001)
(0.0502684 -0.0275981 -0.00269594)
(0.0475373 -0.0298858 -0.000703765)
(0.0390102 -0.0352618 0.00168346)
(0.0255327 -0.0415272 0.00456869)
(0.0110783 -0.0450608 0.00620658)
(0.0025984 -0.0460941 0.00487697)
(-0.000224155 -0.0255603 -0.000224155)
(-0.00482651 -0.0338211 0.00166143)
(-0.0152364 -0.0434298 -0.00162601)
(-0.0255975 -0.0467726 -0.00875613)
(-0.0305238 -0.0461822 -0.0151144)
(-0.0292549 -0.0452442 -0.0197043)
(-0.0225989 -0.0440446 -0.0230619)
(-0.0122908 -0.04177 -0.0252433)
(0.00128077 -0.0387889 -0.0250617)
(0.015001 -0.0376539 -0.023562)
(0.027519 -0.0367691 -0.0215334)
(0.0393246 -0.0349343 -0.0189141)
(0.0491482 -0.0325981 -0.0161184)
(0.056443 -0.0303832 -0.013401)
(0.0607367 -0.0287632 -0.0108452)
(0.0612929 -0.0283814 -0.00837821)
(0.0570034 -0.0298907 -0.00567485)
(0.046208 -0.0330898 -0.0022496)
(0.0283386 -0.0365163 0.00163576)
(0.0100974 -0.0388298 0.0037818)
(-0.00357048 -0.012091 -0.00357047)
(-0.0167961 -0.0204239 -0.00630838)
(-0.0338684 -0.0266949 -0.0162707)
(-0.0450181 -0.0259044 -0.0267998)
(-0.0476054 -0.0231963 -0.0344315)
(-0.0431641 -0.0210259 -0.0400412)
(-0.0331549 -0.0189284 -0.0445463)
(-0.0191542 -0.0163573 -0.0475465)
(-0.00119982 -0.0133894 -0.0480685)
(0.0181878 -0.0144076 -0.0454941)
(0.0331205 -0.0156742 -0.0423816)
(0.0466264 -0.0162474 -0.0383342)
(0.0574789 -0.0162397 -0.0340202)
(0.0655296 -0.0159718 -0.0297548)
(0.0708244 -0.0157646 -0.0257175)
(0.0730995 -0.0160587 -0.0218782)
(0.0713063 -0.0173122 -0.0177559)
(0.0630571 -0.0192756 -0.0124115)
(0.0448629 -0.0201396 -0.00539661)
(0.0195596 -0.0190302 0.00133316)
(-0.000668437 0.00709646 -0.00995185)
(-0.00289164 0.00792475 -0.00289165)
(-0.0107648 0.00529214 0.00109689)
(-0.0168761 0.0011996 0.00314636)
(-0.0207423 -0.00186078 0.00553517)
(-0.0214749 -0.00460282 0.00863884)
(-0.019763 -0.00698821 0.0118364)
(-0.0167004 -0.00826688 0.0138276)
(-0.0141322 -0.00795855 0.0139045)
(-0.0135929 -0.00640332 0.0120598)
(-0.0152936 -0.00477367 0.00904351)
(-0.0176254 -0.00375338 0.00580898)
(-0.019514 -0.00242476 0.00212378)
(-0.0209484 0.00015615 -0.00263997)
(-0.0218097 0.00190183 -0.00656524)
(-0.021543 0.00204391 -0.00973024)
(-0.0193702 0.00137869 -0.012336)
(-0.0151403 0.00076993 -0.0145223)
(-0.0100013 0.000688692 -0.0164375)
(-0.00171644 0.00209682 -0.018486)
(-0.000141398 0.0112419 -0.00278282)
(-0.000259285 0.0124498 -0.000259287)
(-0.00255491 0.0102764 0.000315638)
(-0.00351474 0.00591666 0.00104475)
(-0.0036723 0.000758395 0.0032037)
(-0.00202826 -0.00554413 0.00657953)
(0.000554445 -0.010629 0.0099475)
(0.00178422 -0.0126628 0.0125438)
(0.000513482 -0.0112281 0.0138018)
(-0.00356397 -0.00722425 0.0135377)
(-0.0103438 -0.00333784 0.0120896)
(-0.0169943 -0.00172477 0.0103672)
(-0.0212736 -0.00071927 0.0083082)
(-0.0231976 0.000807853 0.00550096)
(-0.0233865 0.00232967 0.00187044)
(-0.0224247 0.00295936 -0.00138316)
(-0.0201991 0.00243615 -0.00401413)
(-0.0166093 0.00149102 -0.00646998)
(-0.0116697 0.000662465 -0.00907309)
(-0.00403073 0.000989568 -0.0122363)
(0.000263968 0.0126402 0.00121821)
(0.00161857 0.0128729 0.00161857)
(0.00256642 0.0101255 0.00102697)
(0.00495493 0.00482509 0.000969981)
(0.00918062 -0.00230692 0.00253468)
(0.0139861 -0.00964739 0.00500558)
(0.0171448 -0.014401 0.0072626)
(0.0172909 -0.0155202 0.00913983)
(0.0142815 -0.0131441 0.0105758)
(0.00860007 -0.00788401 0.0114172)
(-0.000476438 -0.00172433 0.0115831)
(-0.0113653 -0.00050883 0.0115924)
(-0.0190502 -0.00187058 0.0118279)
(-0.022929 -0.00208267 0.0113001)
(-0.0235462 -0.0013433 0.00924223)
(-0.0223359 -0.000861977 0.00608134)
(-0.0201339 -0.00115249 0.00289112)
(-0.016702 -0.00197603 -0.00013225)
(-0.0116894 -0.00299854 -0.00306005)
(-0.00474118 -0.00324521 -0.00608422)
(0.000858799 0.00986791 0.00360712)
(0.00358159 0.00882659 0.00358159)
(0.00683628 0.00533552 0.00321909)
(0.0122351 -0.00102783 0.00381054)
(0.0192902 -0.00874723 0.00528987)
(0.0251092 -0.0146075 0.00635762)
(0.0280835 -0.017196 0.00695242)
(0.0277196 -0.016445 0.00745496)
(0.0243186 -0.0127869 0.00817095)
(0.0185883 -0.0065134 0.00907491)
(0.0113234 0.00109623 0.00986759)
(0.000196136 0.00457415 0.0110231)
(-0.0119601 0.000157832 0.0127976)
(-0.0194624 -0.00447058 0.0145935)
(-0.0227042 -0.00684262 0.0153294)
(-0.0222104 -0.00736849 0.0138698)
(-0.0197749 -0.00798008 0.0107536)
(-0.0162011 -0.00908936 0.0071476)
(-0.0112297 -0.0103854 0.00360469)
(-0.00479186 -0.0113138 0.000372554)
(0.00177276 0.00383406 0.00545563)
(0.00624299 0.00112775 0.00624299)
(0.0119961 -0.00418074 0.00750006)
(0.0196273 -0.011591 0.00924992)
(0.0266994 -0.0177303 0.010103)
(0.0313427 -0.0205604 0.00961365)
(0.0330133 -0.0199547 0.00842259)
(0.0319388 -0.0167937 0.00743686)
(0.0286463 -0.0118766 0.00723106)
(0.0240022 -0.00533989 0.00788223)
(0.0188771 0.00260096 0.0090306)
(0.0126247 0.00843916 0.0104111)
(0.00227589 0.00543052 0.0128931)
(-0.0087935 -0.00421707 0.0159661)
(-0.0160904 -0.0120612 0.0183323)
(-0.0192232 -0.0164933 0.0193431)
(-0.0183991 -0.0181281 0.0178555)
(-0.0151238 -0.0196059 0.014411)
(-0.0104132 -0.0214247 0.0103387)
(-0.00441571 -0.0231465 0.00654362)
(0.00337663 -0.00653508 0.00763998)
(0.010168 -0.0117861 0.010168)
(0.0174111 -0.0184238 0.0130808)
(0.0242289 -0.0246861 0.014817)
(0.0286915 -0.0276477 0.0143193)
(0.0304544 -0.0265884 0.0121793)
(0.0302521 -0.0226296 0.00954507)
(0.0287103 -0.0171922 0.00756652)
(0.0261566 -0.0113232 0.00684142)
(0.023418 -0.00511236 0.00744922)
(0.021438 0.00179046 0.00902363)
(0.0197521 0.00777745 0.0110729)
(0.0166289 0.0081351 0.0135566)
(0.00990806 3.61667e-05 0.0163538)
(0.000136936 -0.0129493 0.0190678)
(-0.00784028 -0.0231532 0.0209943)
(-0.0119244 -0.0290487 0.021517)
(-0.0116901 -0.0320709 0.0194045)
(-0.00859668 -0.0345141 0.0153208)
(-0.00359503 -0.0368384 0.0107371)
(0.00501984 -0.0217148 0.00851085)
(0.0124954 -0.0273472 0.0124954)
(0.0183345 -0.03335 0.0157667)
(0.0216044 -0.0366459 0.0163748)
(0.0218256 -0.0355825 0.0142768)
(0.0204525 -0.0311895 0.0108434)
(0.0192222 -0.0250823 0.00727243)
(0.0186641 -0.0184949 0.00495356)
(0.01821 -0.012527 0.00426139)
(0.0185617 -0.00739556 0.00511723)
(0.0204464 -0.00243139 0.00708037)
(0.0234694 0.00208479 0.00981716)
(0.0260018 0.00329536 0.0127119)
(0.0260559 -0.00118273 0.0152633)
(0.0213078 -0.010796 0.0171411)
(0.012492 -0.023119 0.0187139)
(0.00311373 -0.0342879 0.020243)
(-0.00264096 -0.0412955 0.0200433)
(-0.00423248 -0.0455875 0.0169794)
(-0.00203877 -0.0486366 0.0118721)
(0.00478189 -0.033495 0.00454086)
(0.010124 -0.0379617 0.010124)
(0.011312 -0.0417281 0.0123546)
(0.00932778 -0.0413725 0.0107249)
(0.00555807 -0.0375047 0.00669487)
(0.00262348 -0.0319589 0.0017498)
(0.00253897 -0.0253766 -0.00322914)
(0.0054029 -0.018913 -0.00605946)
(0.00952495 -0.0136252 -0.00605405)
(0.014339 -0.0108695 -0.00472194)
(0.0205612 -0.00891471 -0.00225659)
(0.0273812 -0.00695075 0.0010646)
(0.0333882 -0.00578647 0.00469154)
(0.0373676 -0.00744256 0.00775388)
(0.0377633 -0.0125705 0.0101297)
(0.0332198 -0.0208691 0.0120058)
(0.0241031 -0.0312311 0.0137792)
(0.013403 -0.0411578 0.0151103)
(0.00448039 -0.0482414 0.014407)
(0.000868128 -0.0524552 0.0100012)
(0.00166143 -0.0338211 -0.00482651)
(0.00108893 -0.0366657 0.00108894)
(-0.00573543 -0.0378224 -0.00094813)
(-0.0131167 -0.034834 -0.00660946)
(-0.0184827 -0.0309818 -0.0133373)
(-0.0192283 -0.0273267 -0.019734)
(-0.0150186 -0.0236928 -0.0244933)
(-0.00726489 -0.0194007 -0.027345)
(0.00341937 -0.0158569 -0.0263209)
(0.0137863 -0.0154726 -0.0243984)
(0.0242256 -0.0159792 -0.0213601)
(0.0341052 -0.0156688 -0.0172912)
(0.0424546 -0.0151266 -0.0129152)
(0.0487182 -0.0150827 -0.00884546)
(0.0520187 -0.0161808 -0.00534878)
(0.0511599 -0.0190819 -0.00222711)
(0.044912 -0.0244132 0.000856873)
(0.0335223 -0.0316974 0.00392603)
(0.0185885 -0.0386611 0.00659364)
(0.0063055 -0.0431406 0.0058246)
(-0.00630838 -0.0204239 -0.0167961)
(-0.0195537 -0.0221595 -0.0195537)
(-0.0362582 -0.0176678 -0.0315596)
(-0.0460143 -0.0112911 -0.0424577)
(-0.048702 -0.00690218 -0.0512933)
(-0.0450393 -0.00385816 -0.0589692)
(-0.0356432 -0.000962185 -0.0654398)
(-0.0213727 0.0022886 -0.0692137)
(-0.00228063 0.0056409 -0.0693252)
(0.0189435 0.00359406 -0.0659832)
(0.0344288 0.000953365 -0.0614336)
(0.0478604 -0.000891178 -0.0553379)
(0.0583547 -0.00213558 -0.0487515)
(0.0659641 -0.00316669 -0.0422238)
(0.0706351 -0.00432303 -0.0361089)
(0.0718651 -0.00611793 -0.0305031)
(0.0684486 -0.00934918 -0.0249263)
(0.0582031 -0.01462 -0.0179631)
(0.0387036 -0.020348 -0.00852356)
(0.0157149 -0.0226959 -0.00101176)
(-0.000630891 0.00376588 -0.0177355)
(0.00109689 0.00529214 -0.0107649)
(-0.00404625 0.00812737 -0.00404626)
(-0.0111296 0.0055757 0.00179609)
(-0.0164324 0.00126221 0.00648151)
(-0.0193262 -0.00174256 0.0115027)
(-0.019509 -0.00396587 0.0160424)
(-0.0183583 -0.00535314 0.0191005)
(-0.0171977 -0.00567584 0.0197854)
(-0.0172026 -0.00509725 0.0178215)
(-0.018527 -0.00428846 0.0139638)
(-0.0200232 -0.00367374 0.00927505)
(-0.0208258 -0.00270364 0.00393334)
(-0.0210678 -0.00102041 -0.00215208)
(-0.0214295 0.000351732 -0.00825474)
(-0.0209422 -3.83923e-05 -0.0130074)
(-0.018544 -0.00118645 -0.0166092)
(-0.0140702 -0.00205793 -0.0195603)
(-0.00889388 -0.00205161 -0.022259)
(-0.000455086 0.000733354 -0.0249098)
(-0.00011836 0.00671947 -0.00581506)
(0.000315638 0.0102764 -0.00255491)
(-0.00121768 0.0129185 -0.00121768)
(-0.00201948 0.0114297 -5.58297e-05)
(-0.00227304 0.00714156 0.002557)
(-0.00199319 0.00228498 0.00695912)
(-0.00165599 -0.0024101 0.0119049)
(-0.0019897 -0.00514641 0.0161676)
(-0.00417796 -0.00539798 0.0187456)
(-0.00835863 -0.00372971 0.0190281)
(-0.0140984 -0.00195366 0.0171989)
(-0.0192053 -0.00146338 0.0144032)
(-0.0221623 -0.00135735 0.0112117)
(-0.02305 -0.000738758 0.00745612)
(-0.0225775 -4.21344e-05 0.00318125)
(-0.0213326 -0.000204907 -0.00103618)
(-0.0192676 -0.00142449 -0.00474676)
(-0.0159118 -0.00290534 -0.00838164)
(-0.0112022 -0.00381607 -0.0123047)
(-0.00394256 -0.00235754 -0.0170436)
(-3.69244e-05 0.00733386 0.00140992)
(0.00102697 0.0101255 0.00256642)
(0.00212418 0.0119566 0.00212418)
(0.00460137 0.0104048 0.00159998)
(0.00783054 0.00621316 0.00253081)
(0.0112714 0.00131919 0.00487859)
(0.0135433 -0.00273417 0.00797828)
(0.013094 -0.004834 0.011395)
(0.00969054 -0.00462477 0.0145994)
(0.00353286 -0.00227444 0.016864)
(-0.00543114 0.000389353 0.0174933)
(-0.0144151 -4.83442e-05 0.0168542)
(-0.0204495 -0.00183027 0.0161213)
(-0.0231022 -0.00289836 0.0149217)
(-0.0231323 -0.00343353 0.012584)
(-0.0217252 -0.00428848 0.00921098)
(-0.0195266 -0.00582228 0.00542459)
(-0.0162624 -0.00777882 0.00138759)
(-0.0115098 -0.00954222 -0.00292273)
(-0.00499506 -0.00993018 -0.00760174)
(0.000652009 0.00412493 0.00586653)
(0.00321909 0.00533552 0.00683628)
(0.00654044 0.00591769 0.00654044)
(0.0112618 0.00437088 0.00598372)
(0.0169797 0.0012512 0.0060647)
(0.0223172 -0.00178322 0.00645237)
(0.0251623 -0.00353289 0.00713689)
(0.0249434 -0.00376533 0.00860923)
(0.0215608 -0.00227991 0.0109166)
(0.0154477 0.00103986 0.0135031)
(0.00743259 0.00498555 0.0156709)
(-0.00480219 0.00506262 0.0172843)
(-0.0152476 0.000373233 0.0186287)
(-0.0211312 -0.00394574 0.0199479)
(-0.0231309 -0.00692335 0.0203702)
(-0.0222207 -0.00923046 0.018891)
(-0.0197987 -0.0117882 0.0157451)
(-0.0163314 -0.0148306 0.0117219)
(-0.011467 -0.0179825 0.00719757)
(-0.00514503 -0.0203378 0.00236497)
(0.00240476 -0.00353804 0.00979325)
(0.00750006 -0.00418074 0.0119961)
(0.0130155 -0.00447586 0.0130155)
(0.0195485 -0.00550546 0.0132258)
(0.0258166 -0.00623539 0.0122415)
(0.0304763 -0.00601024 0.0103255)
(0.0327703 -0.00482767 0.0084402)
(0.0323832 -0.00287433 0.00767873)
(0.0293076 -9.39389e-05 0.00853698)
(0.0240124 0.00380409 0.0106434)
(0.0171643 0.00848092 0.0133252)
(0.00866196 0.0108749 0.0159632)
(-0.00410744 0.00529843 0.0191734)
(-0.0140157 -0.0033274 0.0222671)
(-0.0193328 -0.0102559 0.0249153)
(-0.0208235 -0.015554 0.0260401)
(-0.0192517 -0.0198514 0.0246618)
(-0.0158531 -0.0243601 0.0211309)
(-0.0111074 -0.0292003 0.0164582)
(-0.00494487 -0.0338404 0.0112211)
(0.00544047 -0.0181255 0.0136175)
(0.0130808 -0.0184238 0.0174111)
(0.0197083 -0.0178176 0.0197083)
(0.0257431 -0.0165001 0.0198048)
(0.0304348 -0.0139663 0.0173688)
(0.0333591 -0.0101972 0.0133138)
(0.0344473 -0.00593596 0.00922111)
(0.0337095 -0.00178391 0.00664596)
(0.0310455 0.00213742 0.0062719)
(0.0269492 0.00605116 0.00788274)
(0.0223988 0.0102316 0.0108575)
(0.017615 0.0133473 0.0143061)
(0.0111836 0.0112456 0.0178648)
(0.000992613 0.000768772 0.0221696)
(-0.00755472 -0.0109942 0.0256585)
(-0.0129317 -0.0206168 0.0282684)
(-0.0146972 -0.028156 0.0290297)
(-0.0132305 -0.0346901 0.0268053)
(-0.00978929 -0.0412449 0.0221788)
(-0.00427402 -0.0478031 0.0159478)
(0.00729643 -0.0359445 0.0122563)
(0.0157667 -0.03335 0.0183345)
(0.0211537 -0.0305019 0.0211537)
(0.0247958 -0.0263275 0.0204767)
(0.0265909 -0.0204674 0.0164923)
(0.0273322 -0.0135581 0.0107866)
(0.0275608 -0.00671891 0.00536201)
(0.0271602 -0.000670436 0.00186535)
(0.0255707 0.00416866 0.000839277)
(0.0238042 0.0074182 0.00240878)
(0.0226677 0.0100394 0.00585325)
(0.0223215 0.0120045 0.0101955)
(0.021669 0.011052 0.0144807)
(0.0189348 0.0046828 0.0183539)
(0.0122091 -0.0069497 0.021429)
(0.00402625 -0.0203103 0.0242858)
(-0.00248202 -0.0319825 0.0264171)
(-0.00559241 -0.0415504 0.0260986)
(-0.00605079 -0.0502413 0.0224729)
(-0.00274193 -0.0585091 0.0153137)
(0.00554066 -0.0467799 0.00214935)
(0.0123546 -0.0417281 0.011312)
(0.0131887 -0.0366342 0.0131887)
(0.0124835 -0.0298619 0.010214)
(0.010698 -0.0215354 0.00383352)
(0.00997028 -0.0120149 -0.00353917)
(0.0108643 -0.00304464 -0.00935414)
(0.0127866 0.00427896 -0.012898)
(0.0150353 0.00851479 -0.0129173)
(0.017474 0.00941745 -0.0103578)
(0.020917 0.00931759 -0.00611401)
(0.0251165 0.00938038 -0.00108006)
(0.0290476 0.00834019 0.00382208)
(0.0316671 0.00437947 0.00770671)
(0.0311396 -0.00358312 0.0103586)
(0.026132 -0.0147839 0.0128121)
(0.0178317 -0.0274144 0.0154413)
(0.00928146 -0.0396522 0.0173614)
(0.00204284 -0.0506851 0.016417)
(0.00035921 -0.060328 0.00974514)
(-0.00162601 -0.0434298 -0.0152364)
(-0.00094813 -0.0378223 -0.00573543)
(-0.0082119 -0.0317439 -0.0082119)
(-0.0136126 -0.0249434 -0.0150641)
(-0.0171794 -0.0179915 -0.0233347)
(-0.016719 -0.0113473 -0.031135)
(-0.0118186 -0.00548554 -0.036726)
(-0.00440895 0.000731256 -0.0405918)
(0.00561667 0.00472482 -0.0393226)
(0.0147553 0.00347763 -0.0357139)
(0.0237134 0.000779389 -0.030486)
(0.0320394 -0.000734968 -0.0243101)
(0.0392028 -0.00199805 -0.0183693)
(0.0449327 -0.0040335 -0.0139819)
(0.0479606 -0.00733778 -0.0103979)
(0.0471443 -0.0124299 -0.00732448)
(0.0414359 -0.019695 -0.00414527)
(0.0312034 -0.0290256 -0.000317667)
(0.017363 -0.0394105 0.00282835)
(0.00692707 -0.0489117 0.000613413)
(-0.0162707 -0.0266949 -0.0338684)
(-0.0315596 -0.0176678 -0.0362582)
(-0.0472798 -0.00818181 -0.0472798)
(-0.0547954 -0.0015999 -0.0585882)
(-0.0561163 0.00276239 -0.0692601)
(-0.0511758 0.00631997 -0.0788355)
(-0.0403055 0.00987244 -0.0868185)
(-0.0238554 0.0137155 -0.0908865)
(-0.00209936 0.0175295 -0.0902603)
(0.021317 0.0145631 -0.0861253)
(0.0380064 0.0106893 -0.080209)
(0.0518856 0.00777362 -0.0722499)
(0.0623979 0.00559872 -0.0638262)
(0.0698256 0.00370485 -0.055723)
(0.0742028 0.00183118 -0.0483248)
(0.0750679 -0.000509123 -0.0416072)
(0.0714488 -0.0039663 -0.0351868)
(0.0617447 -0.00970516 -0.0281733)
(0.0429615 -0.0185599 -0.0193842)
(0.0201426 -0.0278275 -0.0124556)
(-0.000292934 0.00125814 -0.0228088)
(0.00314636 0.00119959 -0.0168761)
(0.0017961 0.0055757 -0.0111296)
(-0.00376852 0.00978995 -0.00376853)
(-0.0123099 0.00643509 0.0043174)
(-0.0163742 0.0022174 0.0106519)
(-0.0188981 -0.000566972 0.0169297)
(-0.0200349 -0.0022789 0.0214465)
(-0.0205546 -0.00309782 0.0230288)
(-0.0215824 -0.00307356 0.0213834)
(-0.0229416 -0.00262125 0.0172235)
(-0.0238728 -0.00205244 0.0117613)
(-0.0239877 -0.00124083 0.00553801)
(-0.0237538 -0.000389672 -0.00130419)
(-0.0236517 -0.000488838 -0.008091)
(-0.022494 -0.001793 -0.0133632)
(-0.019495 -0.00327038 -0.0174281)
(-0.014505 -0.00430169 -0.0209646)
(-0.00879616 -0.00426844 -0.0244339)
(0.000165766 -0.000172373 -0.0280533)
(0.00077866 0.00201892 -0.00723923)
(0.00104475 0.00591665 -0.00351474)
(-5.58283e-05 0.0114296 -0.00201948)
(-0.00112795 0.0155158 -0.00112795)
(-0.00256627 0.0140733 0.000842908)
(-0.0026908 0.00991641 0.00505317)
(-0.00340565 0.00563644 0.0110653)
(-0.00539151 0.00222515 0.0170311)
(-0.00918707 0.000397957 0.0211686)
(-0.013857 0.000190077 0.0221163)
(-0.0187489 0.000453322 0.0201398)
(-0.0224635 0.000209029 0.0167576)
(-0.0241352 -0.000191691 0.012965)
(-0.0241176 -0.000463672 0.00888586)
(-0.0231894 -0.00108981 0.00452542)
(-0.0217704 -0.00255424 0.000195058)
(-0.0196618 -0.00460638 -0.00399291)
(-0.0162927 -0.00664884 -0.0082297)
(-0.0114829 -0.00782405 -0.012893)
(-0.0044788 -0.0057715 -0.0184124)
(0.000336634 0.000410374 0.00339675)
(0.000969979 0.00482508 0.00495493)
(0.00159998 0.0104048 0.00460137)
(0.00314909 0.0145732 0.00314909)
(0.00535524 0.0145414 0.00238571)
(0.00791432 0.011695 0.00378084)
(0.0092433 0.00835653 0.00719552)
(0.00817458 0.00564165 0.0118931)
(0.00406854 0.00412048 0.0168389)
(-0.00293944 0.00382952 0.0205194)
(-0.0108002 0.00357553 0.0213053)
(-0.0178656 0.00183682 0.0202524)
(-0.0221676 -0.000387487 0.0187535)
(-0.0236609 -0.00212743 0.0170092)
(-0.0232621 -0.0037616 0.0145973)
(-0.0218759 -0.00592781 0.0114606)
(-0.0198334 -0.00880188 0.00786527)
(-0.0167582 -0.0121368 0.00387162)
(-0.0120872 -0.0152032 -0.000672625)
(-0.00580858 -0.0167955 -0.00567351)
(0.00140491 -0.00559644 0.0110498)
(0.00381053 -0.00102784 0.0122351)
(0.00598372 0.00437088 0.0112618)
(0.00923196 0.00849871 0.00923197)
(0.0132558 0.0102766 0.00713205)
(0.0172217 0.0100932 0.0060697)
(0.0196249 0.00928999 0.00657706)
(0.0193417 0.00865311 0.00898956)
(0.0157743 0.0086138 0.0129248)
(0.00928153 0.00927831 0.0171342)
(0.000644414 0.00953612 0.0204064)
(-0.00967118 0.00684132 0.02196)
(-0.0177481 0.00184933 0.0226815)
(-0.0220379 -0.00247568 0.0232745)
(-0.0231899 -0.00594038 0.0232903)
(-0.022266 -0.009482 0.0220076)
(-0.0201493 -0.0137293 0.0194636)
(-0.0169768 -0.0188537 0.0160628)
(-0.0122723 -0.0245197 0.0120065)
(-0.0059757 -0.0299569 0.00725637)
(0.00428519 -0.0174881 0.0170529)
(0.00924992 -0.011591 0.0196273)
(0.0132258 -0.00550546 0.0195485)
(0.0173005 4.81368e-05 0.0173005)
(0.0215091 0.00415042 0.0137988)
(0.0252818 0.00695454 0.0103334)
(0.0275269 0.00911577 0.00794487)
(0.0273843 0.0109057 0.00777504)
(0.0243108 0.0124341 0.0100491)
(0.0186387 0.0138285 0.0138402)
(0.0113403 0.0148746 0.0178839)
(0.00228589 0.0133771 0.0213369)
(-0.00870829 0.00648905 0.0242225)
(-0.0167206 -0.00134822 0.0267766)
(-0.0205094 -0.00774037 0.0290089)
(-0.0212598 -0.0136039 0.0300688)
(-0.0197157 -0.0197981 0.0291121)
(-0.0166206 -0.0270568 0.0262811)
(-0.0121275 -0.0354136 0.0221161)
(-0.00569435 -0.0446994 0.0164681)
(0.00710355 -0.0339035 0.0186923)
(0.014817 -0.0246861 0.0242289)
(0.0198048 -0.0165001 0.0257431)
(0.024009 -0.008924 0.024009)
(0.0274688 -0.00200802 0.0195452)
(0.0299307 0.00408804 0.0137865)
(0.0311002 0.00919977 0.00867158)
(0.0305817 0.0133148 0.00609548)
(0.0279002 0.0161568 0.00678967)
(0.0234213 0.0176723 0.00996009)
(0.0182129 0.0184481 0.0143282)
(0.0125691 0.0178633 0.0186958)
(0.00548385 0.013128 0.0226394)
(-0.00426083 0.00239993 0.0268622)
(-0.0112829 -0.00781512 0.0301848)
(-0.0149377 -0.0168636 0.032833)
(-0.0157038 -0.025636 0.0335883)
(-0.0140306 -0.0351022 0.0315455)
(-0.0108824 -0.0457852 0.027008)
(-0.00473433 -0.0580442 0.0193595)
(0.0068375 -0.0488855 0.0112598)
(0.0163748 -0.0366459 0.0216044)
(0.0204767 -0.0263275 0.0247958)
(0.0233879 -0.016371 0.0233879)
(0.0252743 -0.00678187 0.0183562)
(0.0263858 0.00213766 0.0112375)
(0.0265324 0.0100517 0.00393041)
(0.0261502 0.0165856 -0.000470101)
(0.0247624 0.0202419 -0.000574274)
(0.0225937 0.020707 0.00258535)
(0.0206029 0.0200023 0.00749927)
(0.0191685 0.018731 0.0128104)
(0.0173942 0.0154331 0.0174904)
(0.0139844 0.00820868 0.0213389)
(0.00688597 -0.00349056 0.0251786)
(0.000242991 -0.0160228 0.0282123)
(-0.00433748 -0.0276428 0.0300289)
(-0.00634085 -0.0394022 0.029248)
(-0.00694976 -0.0521816 0.0250914)
(-0.00253503 -0.0667363 0.0156369)
(0.00178728 -0.0547688 -0.00535411)
(0.0107249 -0.0413725 0.00932778)
(0.010214 -0.0298619 0.0124835)
(0.00971409 -0.0181211 0.00971409)
(0.00922887 -0.00606373 0.00342769)
(0.00904869 0.00550672 -0.00506151)
(0.0104085 0.0144433 -0.0129166)
(0.0132285 0.0213044 -0.0173486)
(0.0158892 0.0244855 -0.0168631)
(0.0181003 0.0230169 -0.012816)
(0.020868 0.0200098 -0.00686475)
(0.0241122 0.0174495 -0.000439341)
(0.0270237 0.0145758 0.00512268)
(0.0287539 0.0100027 0.0092269)
(0.0278634 0.00256138 0.0122383)
(0.0233108 -0.00872259 0.0145598)
(0.0162813 -0.0218804 0.0168286)
(0.00919919 -0.0354953 0.0179702)
(0.00192105 -0.0499937 0.0158899)
(0.00183531 -0.0658635 0.00649033)
(-0.00875614 -0.0467726 -0.0255975)
(-0.00660946 -0.034834 -0.0131167)
(-0.0150641 -0.0249434 -0.0136126)
(-0.0195555 -0.0152546 -0.0195555)
(-0.0215443 -0.00566556 -0.0275169)
(-0.0202369 0.00302169 -0.0364898)
(-0.0139384 0.0101804 -0.0435149)
(-0.00460876 0.0166981 -0.0477277)
(0.00660394 0.0203359 -0.0465286)
(0.0165203 0.0171649 -0.0416475)
(0.0255638 0.0121018 -0.0347122)
(0.0334537 0.0086583 -0.0270049)
(0.0399773 0.00613463 -0.0200093)
(0.044954 0.00327717 -0.014647)
(0.047749 -0.000921409 -0.0108861)
(0.0470301 -0.00684872 -0.00785289)
(0.0422786 -0.0146855 -0.00521568)
(0.0331226 -0.02469 -0.00256533)
(0.0193401 -0.037206 -0.0011098)
(0.0108524 -0.051986 -0.00634763)
(-0.0267998 -0.0259044 -0.0450181)
(-0.0424577 -0.0112912 -0.0460143)
(-0.0585882 -0.00159989 -0.0547954)
(-0.0654662 0.00454548 -0.0654662)
(-0.0655948 0.00916648 -0.0762086)
(-0.058776 0.0133197 -0.0859142)
(-0.0459194 0.0177327 -0.094594)
(-0.0272643 0.0226126 -0.100326)
(-0.0019875 0.0272367 -0.10042)
(0.0252724 0.0231103 -0.0953514)
(0.0438139 0.0176971 -0.0875669)
(0.0581652 0.0135569 -0.0776218)
(0.068234 0.0104585 -0.0675291)
(0.075009 0.00788355 -0.0585532)
(0.079033 0.00543731 -0.0511366)
(0.079728 0.00280005 -0.0446903)
(0.0759907 -0.000588242 -0.0385539)
(0.0666893 -0.00574332 -0.0324277)
(0.0486491 -0.0147001 -0.0258928)
(0.0272969 -0.0289102 -0.0217596)
(0.000951278 -0.00148319 -0.0255649)
(0.00553517 -0.00186078 -0.0207423)
(0.00648151 0.00126221 -0.0164324)
(0.00431741 0.00643509 -0.0123099)
(-0.0043068 0.0122597 -0.00430681)
(-0.0130957 0.00784339 0.00583914)
(-0.0169138 0.00347833 0.0138766)
(-0.0202646 0.000922245 0.0206191)
(-0.0232893 -0.000442587 0.0238337)
(-0.0260675 -0.000778213 0.0227744)
(-0.0281127 -0.000461152 0.0182654)
(-0.0290004 0.000104084 0.0119901)
(-0.0288873 0.000545331 0.00497297)
(-0.0284391 0.000212316 -0.00215811)
(-0.027506 -0.00135427 -0.00836486)
(-0.0252864 -0.0032201 -0.0131102)
(-0.021455 -0.00484647 -0.0170331)
(-0.0158787 -0.00604514 -0.0206774)
(-0.00953401 -0.00617252 -0.0244938)
(4.40613e-05 -0.00135854 -0.0287793)
(0.00241531 -0.00417144 -0.00645901)
(0.0032037 0.00075839 -0.0036723)
(0.002557 0.00714156 -0.00227304)
(0.000842912 0.0140733 -0.00256627)
(-0.00213971 0.0197773 -0.00213971)
(-0.00427503 0.0177043 0.00129805)
(-0.00544332 0.0132543 0.00767298)
(-0.00855152 0.00925196 0.0153156)
(-0.0135205 0.00622688 0.0210756)
(-0.0189995 0.00448495 0.0228554)
(-0.0235935 0.00350433 0.0209854)
(-0.0262741 0.00261964 0.0173808)
(-0.0269255 0.00164109 0.0133235)
(-0.0262541 0.000364203 0.00921241)
(-0.0250153 -0.0015683 0.00506243)
(-0.0233976 -0.00408385 0.000964979)
(-0.0210833 -0.00684934 -0.00307043)
(-0.0175638 -0.00955148 -0.00720781)
(-0.0125219 -0.0115194 -0.0117755)
(-0.00562604 -0.0105193 -0.0169509)
(0.00175874 -0.0102044 0.00866867)