/*--------------------------------*- C++ -*----------------------------------*\
| =========                 |                                                 |
| \\      /  F ield         | OpenFOAM: The Open Source CFD Toolbox           |
|  \\    /   O peration     | Version:  1.7.1                                 |
|   \\  /    A nd           | Web:      www.OpenFOAM.com                      |
|    \\/     M anipulation  |                                                 |
\*---------------------------------------------------------------------------*/
FoamFile
{
    version     2.0;
    format      ascii;
    class       volScalarField;
    location    "600";
    object      alphat;
}
// * * * * * * * * * * * * * * * * * * * * * * * * * * * * * * * * * * * * * //

dimensions      [1 -1 -1 0 0 0 0];

internalField   nonuniform List<scalar> 
4000
(
0.000236041
0.000242026
0.000244736
0.000247865
0.0002542
0.0002596
0.000262732
0.00026338
0.000261667
0.000259094
0.000258271
0.00026308
0.000265249
0.000264344
0.00026251
0.000260267
0.000257358
0.000253168
0.000247239
0.000239412
0.000259294
0.000268752
0.000276372
0.000283598
0.00028714
0.000289419
0.000292484
0.000294487
0.00029554
0.000297159
0.000301398
0.000306898
0.000303106
0.000294525
0.000285533
0.000278191
0.000271934
0.000267679
0.000260881
0.000254382
0.000304107
0.000306898
0.000307792
0.000308651
0.000309229
0.000312223
0.000315916
0.000319477
0.00032551
0.000333529
0.000343046
0.000348924
0.00033965
0.00032218
0.00030469
0.0002922
0.000283655
0.000286658
0.000286287
0.000285807
0.000382509
0.000372934
0.000364753
0.000356044
0.000346505
0.000339502
0.000324953
0.000335368
0.000350781
0.000367742
0.00038279
0.000389637
0.000375083
0.000346823
0.000318929
0.000313482
0.000320031
0.000327612
0.000337753
0.00034765
0.000465881
0.000451343
0.000430152
0.000412467
0.00039772
0.000385054
0.000373328
0.000377293
0.000395895
0.000418436
0.000434923
0.000442889
0.000427305
0.000398741
0.000374132
0.000364853
0.000371047
0.000385584
0.000410626
0.000442819
0.000491629
0.000491683
0.000486644
0.000476496
0.000469667
0.000471713
0.000483533
0.000497262
0.000508962
0.000515536
0.000518248
0.000523218
0.000516844
0.000500031
0.000480712
0.000463851
0.000455907
0.000460727
0.000470202
0.00047761
0.000508735
0.000519762
0.000529533
0.000541136
0.000555214
0.000571397
0.00058754
0.000600873
0.000608548
0.000607639
0.000604172
0.000608418
0.000606868
0.000595959
0.000578613
0.000558461
0.000538891
0.000522686
0.00051126
0.000500166
0.000523073
0.000546372
0.0005713
0.000596742
0.000622124
0.000646244
0.000667329
0.00068308
0.000690407
0.000687039
0.000683209
0.000689289
0.000687727
0.000676113
0.000656687
0.000631972
0.000604179
0.000575307
0.00054681
0.000518479
0.000539065
0.000574352
0.000611381
0.00064685
0.000680793
0.000712171
0.000739257
0.000759324
0.000768939
0.000766548
0.000765133
0.000773111
0.000769172
0.000752967
0.000727577
0.00069594
0.000660173
0.000621639
0.000580116
0.0005367
0.000559135
0.000607708
0.000655378
0.000698149
0.000737584
0.000773375
0.000804536
0.000829351
0.000845575
0.000852008
0.000858677
0.000860483
0.000848612
0.000826372
0.000796141
0.000759561
0.000717803
0.000671519
0.000618876
0.000560064
0.000242026
0.000259196
0.000267853
0.000273205
0.00027855
0.000287014
0.000294528
0.00030047
0.000304575
0.000307459
0.000310531
0.000316098
0.000315043
0.000308925
0.000301248
0.000293068
0.00028443
0.000275717
0.000265201
0.000251144
0.000268752
0.000416931
0.000516199
0.000620961
0.000707156
0.00075233
0.000787449
0.000822114
0.000849321
0.00085128
0.00082676
0.000788236
0.000761963
0.000733658
0.00070378
0.000670032
0.00063857
0.000574983
0.000447759
0.00026793
0.000306898
0.000424886
0.000512656
0.000608528
0.000708787
0.000811348
0.000874116
0.000906498
0.000942022
0.0009405
0.000895379
0.000827386
0.000781366
0.000750996
0.000732573
0.000717665
0.000642201
0.000530645
0.000421028
0.000291042
0.000372934
0.000484398
0.000535108
0.000577406
0.000622641
0.000674489
0.000735337
0.000820688
0.000845595
0.000850314
0.000827988
0.000785869
0.000740002
0.000695705
0.000658157
0.000600536
0.000545832
0.000495681
0.000444586
0.000347167
0.000451343
0.000614297
0.000641324
0.000639903
0.000636315
0.000637775
0.000646893
0.00067407
0.0007178
0.000758768
0.000777991
0.000772038
0.000726717
0.000657348
0.000597381
0.000567025
0.00055874
0.000560521
0.000556103
0.000439953
0.000491683
0.000704874
0.00076729
0.000765786
0.000749135
0.000737741
0.000735541
0.00075044
0.000770401
0.000792691
0.000815373
0.000832449
0.000800638
0.000743756
0.000696836
0.000668856
0.000665596
0.0006721
0.000644061
0.000480202
0.000519763
0.000757386
0.00085496
0.000914413
0.000958767
0.000993907
0.00102583
0.00104038
0.00103159
0.00100371
0.000986551
0.00099859
0.000991787
0.00095775
0.000913137
0.000864891
0.000816222
0.000766349
0.000695629
0.000507542
0.000546373
0.000795387
0.000916925
0.00101994
0.00111865
0.00120306
0.00126379
0.00129238
0.00127723
0.00122646
0.00119449
0.00121293
0.00121739
0.00118114
0.00111453
0.00102847
0.000932998
0.000837888
0.000736205
0.000533698
0.000574352
0.000797405
0.000918633
0.00102356
0.00112591
0.00122074
0.00129882
0.00134611
0.00134778
0.00130717
0.00128655
0.00131959
0.00131655
0.00126562
0.00118056
0.00107845
0.000972498
0.000868949
0.000757898
0.0005661
0.000607708
0.000665211
0.000723032
0.000776569
0.000826977
0.000873485
0.000914682
0.000948323
0.000971741
0.000983692
0.000993715
0.000990185
0.000971481
0.00094044
0.000899753
0.000851562
0.000797602
0.000739045
0.000674656
0.000606285
0.000244737
0.000267853
0.000280758
0.000289211
0.000296023
0.0003043
0.000314378
0.000325149
0.000334785
0.000343269
0.000350468
0.000356632
0.00035289
0.000342964
0.000331133
0.0003186
0.000305642
0.00029353
0.000279044
0.000259429
0.000276372
0.000516199
0.000624138
0.000733179
0.00084837
0.000960814
0.00105106
0.00112475
0.00118919
0.00122292
0.00120949
0.00115143
0.00109504
0.00103577
0.00097557
0.000912283
0.000841535
0.000700532
0.00050803
0.000273822
0.000307792
0.000512657
0.000635631
0.000755106
0.000886793
0.00103155
0.0011577
0.00124503
0.00133639
0.0013774
0.00133619
0.001228
0.00113205
0.00106039
0.00100616
0.000954805
0.000815072
0.000637522
0.000471351
0.00029178
0.000364753
0.000535108
0.00063136
0.000708329
0.000784735
0.000867505
0.000959719
0.00109288
0.00120659
0.00126796
0.00124825
0.00115452
0.00104757
0.00094835
0.000858209
0.000749906
0.000654102
0.000565122
0.00047488
0.000341361
0.000430152
0.000641324
0.000724652
0.000762896
0.000788693
0.000816374
0.000854526
0.00092735
0.00104688
0.00114455
0.00118159
0.00112556
0.00100642
0.00086981
0.000755065
0.000685052
0.000648111
0.000621601
0.000578588
0.000425811
0.000486644
0.00076729
0.000879997
0.000913837
0.000921815
0.000926941
0.000940032
0.000971689
0.00104052
0.00112884
0.00119739
0.0011765
0.00105521
0.00091801
0.00082375
0.000777451
0.000760846
0.000749688
0.000690931
0.000478863
0.000529534
0.00085496
0.00102662
0.00112192
0.0011744
0.00121515
0.00126109
0.00131511
0.00134562
0.00136333
0.00138282
0.00136699
0.00127787
0.00116801
0.00107317
0.000998584
0.000942455
0.000874115
0.000758716
0.000515909
0.0005713
0.000916925
0.00113002
0.00130754
0.00146778
0.00160465
0.0017101
0.00177298
0.00178013
0.00174699
0.00172097
0.00169499
0.00163984
0.00154199
0.00141555
0.00127292
0.00112534
0.000978519
0.000815658
0.000555981
0.000611381
0.000918633
0.00115588
0.00138173
0.00159835
0.00179345
0.00195305
0.00205629
0.00209315
0.00210478
0.00213331
0.00208308
0.00201251
0.00188572
0.00170721
0.00149516
0.00127267
0.00105888
0.000849752
0.000600678
0.000655378
0.000723032
0.000789404
0.000851413
0.000910147
0.00096478
0.00101386
0.00105487
0.00108502
0.00110274
0.00111623
0.00110667
0.00108105
0.00104227
0.000993101
0.00093589
0.000872733
0.000805057
0.000732023
0.000654865
0.000247866
0.000273205
0.000289211
0.000300198
0.000309791
0.000319808
0.000331327
0.000344411
0.000360328
0.000374988
0.000385869
0.000391199
0.000384462
0.000371026
0.00035565
0.000339368
0.000323499
0.000307975
0.000289504
0.00026369
0.000283598
0.000620963
0.00073318
0.000828613
0.000940034
0.00107433
0.00122077
0.00135791
0.00146288
0.00153371
0.00153985
0.00146994
0.00138185
0.00128885
0.00119729
0.00110421
0.000981325
0.000791785
0.000565422
0.000277579
0.000308651
0.000608528
0.000755106
0.000884324
0.00102903
0.00119577
0.00137233
0.00153643
0.00168679
0.00177805
0.00175357
0.00161642
0.00146732
0.00134487
0.0012444
0.00114894
0.000971813
0.000744262
0.000526614
0.000290124
0.000356044
0.000577407
0.000708329
0.000811334
0.000910841
0.0010183
0.00115398
0.00134944
0.00155986
0.00170054
0.0016947
0.00154025
0.00135422
0.00118576
0.00103823
0.000881821
0.000745126
0.000618195
0.000491771
0.000331921
0.000412467
0.000639903
0.000762897
0.000838022
0.000895114
0.000952067
0.00102718
0.00116627
0.00139497
0.00160128
0.00165837
0.00150529
0.00127833
0.0010568
0.000877244
0.000762181
0.000693708
0.000636084
0.000560898
0.000400969
0.000476496
0.000765786
0.000913837
0.000991079
0.00103617
0.00107494
0.00112697
0.00121651
0.00138085
0.00157466
0.00168081
0.00154869
0.0013025
0.00106908
0.000916044
0.000838112
0.000795743
0.000755958
0.000677444
0.000468545
0.000541136
0.000914414
0.00112192
0.00124517
0.00133335
0.00141189
0.00149895
0.00160332
0.00170048
0.0017964
0.00185491
0.00174568
0.00153791
0.00133318
0.00117958
0.00107032
0.000993491
0.000916259
0.000781649
0.000519829
0.000596742
0.00101994
0.00130754
0.00155139
0.00175882
0.00194247
0.00209926
0.00221756
0.002264
0.00224509
0.00220374
0.00212338
0.00201414
0.00186001
0.00166686
0.00146636
0.00127447
0.00108029
0.000870524
0.000576001
0.00064685
0.00102356
0.00138173
0.0017601
0.00211914
0.00241654
0.00263984
0.00278215
0.00280154
0.00272413
0.00266439
0.00267424
0.0026646
0.00252906
0.00228716
0.00196845
0.00160574
0.00123835
0.000916743
0.000633076
0.000698149
0.00077657
0.000851413
0.000921308
0.000987373
0.00104917
0.00110569
0.00115437
0.00119251
0.0012177
0.00123565
0.00121829
0.00118416
0.00113688
0.00107934
0.00101373
0.000942273
0.000866157
0.000784749
0.00069805
0.000254201
0.000278551
0.000296023
0.000309791
0.000321385
0.000334034
0.000349398
0.000364856
0.000386686
0.000408618
0.000421923
0.000423888
0.000413483
0.000396047
0.00037693
0.00035686
0.000338291
0.000319393
0.000296592
0.000264896
0.00028714
0.000707158
0.000848371
0.000940034
0.00104299
0.00117933
0.00135526
0.00155973
0.00171987
0.00181989
0.00183493
0.00175525
0.00164256
0.00151841
0.00139622
0.00127238
0.00110381
0.0008843
0.000639433
0.000281361
0.00030923
0.000708788
0.000886793
0.00102904
0.00117948
0.00135915
0.00157909
0.00181721
0.00202432
0.0021495
0.00213093
0.00197945
0.00179567
0.00162476
0.00147832
0.00133859
0.00113914
0.000885298
0.000615274
0.000287451
0.000346505
0.000622641
0.000784736
0.000910841
0.00102963
0.00116547
0.00136333
0.00163444
0.00192465
0.00212134
0.00211814
0.00191921
0.00166467
0.00143195
0.00123447
0.00104288
0.000856992
0.000689002
0.000520545
0.000320377
0.00039772
0.000636315
0.000788693
0.000895114
0.000981869
0.00107112
0.00119702
0.00143138
0.00177636
0.00206949
0.00212009
0.00187264
0.00154331
0.00124232
0.00100077
0.000834844
0.000730993
0.000640965
0.000537752
0.000377577
0.000469667
0.000749135
0.000921816
0.00103617
0.00112047
0.00120112
0.0013085
0.00148578
0.00177502
0.00207742
0.00217712
0.00190509
0.00152932
0.00120422
0.000987073
0.000869809
0.000796757
0.000729127
0.000631506
0.000442449
0.000555215
0.000958767
0.0011744
0.00133335
0.00146614
0.00159323
0.00173445
0.00190706
0.00209027
0.00227798
0.00234024
0.00208704
0.00175187
0.00146838
0.00126174
0.00111124
0.00100257
0.000902547
0.000776208
0.000520778
0.000622124
0.00111865
0.00146778
0.00175882
0.00200794
0.00222209
0.00240192
0.00254454
0.00262668
0.00264176
0.00258204
0.00242646
0.00225727
0.00206902
0.00184235
0.00160403
0.0013743
0.00115524
0.000917994
0.000594094
0.000680793
0.00112591
0.00159835
0.00211915
0.00257945
0.00290591
0.00308561
0.00316709
0.00313469
0.00302286
0.00293423
0.00294556
0.0029613
0.00289589
0.00271574
0.00238151
0.00192292
0.0014092
0.000976789
0.000662725
0.000737584
0.000826977
0.000910147
0.000987373
0.00106002
0.00112911
0.00119451
0.00125293
0.0013012
0.00133621
0.00136039
0.0013318
0.0012869
0.00122946
0.00116184
0.00108719
0.00100774
0.000923658
0.000833957
0.000737134
0.0002596
0.000287015
0.0003043
0.000319808
0.000334034
0.000347799
0.000368827
0.000390163
0.000417586
0.000447732
0.000461095
0.000457397
0.000442102
0.000419675
0.000395903
0.000371591
0.000350298
0.000328167
0.000301243
0.000264033
0.00028942
0.000752332
0.000960816
0.00107433
0.00117933
0.00131644
0.00150913
0.00175387
0.00196348
0.00206044
0.00206217
0.00199097
0.00187595
0.001735
0.00158512
0.00142878
0.00122264
0.000987578
0.000730665
0.000286003
0.000312223
0.000811349
0.00103156
0.00119577
0.00135915
0.00155741
0.00181126
0.00209721
0.00232151
0.00241817
0.00237969
0.00225918
0.00209091
0.00190952
0.00172947
0.00154555
0.00132457
0.0010585
0.000748822
0.000286659
0.000339502
0.000674489
0.000867505
0.0010183
0.00116547
0.00135226
0.00162179
0.00195104
0.00227051
0.0024532
0.00242245
0.00223486
0.00196835
0.0017067
0.00147658
0.00126439
0.00103242
0.000807179
0.000581183
0.000307891
0.000385054
0.000637775
0.000816374
0.000952068
0.00107112
0.00120502
0.00140733
0.00175353
0.00217544
0.00248538
0.00249143
0.00220458
0.00181583
0.00146127
0.00116869
0.000942411
0.000792264
0.000663987
0.000529045
0.000354528
0.000471713
0.000737741
0.000926941
0.00107494
0.00120112
0.00133368
0.00151541
0.00180302
0.00220998
0.00257875
0.0026201
0.00223755
0.00175231
0.00134896
0.00106586
0.000900007
0.000792018
0.000697475
0.00058586
0.000414884
0.000571397
0.000993907
0.00121515
0.00141189
0.00159323
0.00177146
0.00197019
0.00221599
0.00250787
0.00279629
0.00281201
0.00239712
0.00192867
0.00157348
0.00132014
0.00112985
0.000986327
0.000863839
0.000741096
0.000522674
0.000646245
0.00120306
0.00160465
0.00194247
0.00222209
0.00245025
0.00264178
0.00280172
0.00292404
0.00300079
0.00290184
0.00263024
0.00238455
0.00216549
0.00192741
0.00167711
0.00142338
0.00118144
0.000951312
0.000610876
0.000712171
0.00122074
0.00179345
0.00241654
0.00290591
0.00318001
0.00334645
0.00340678
0.00335261
0.00323688
0.00311769
0.00308661
0.00309915
0.00305887
0.00289495
0.00260387
0.00214208
0.00154146
0.00102666
0.000689468
0.000773375
0.000873485
0.000964781
0.00104917
0.00112911
0.0012079
0.00128295
0.00135295
0.00141502
0.00146547
0.00149826
0.0014524
0.00139182
0.00132144
0.00124268
0.00115734
0.00106886
0.000977219
0.000879458
0.000772443
0.000262733
0.000294529
0.000314378
0.000331327
0.000349399
0.000368827
0.00039056
0.000417414
0.000451346
0.000490968
0.000502241
0.000492176
0.00047159
0.000441731
0.00041185
0.000383217
0.000359229
0.000334405
0.000304038
0.000261808
0.000292484
0.000787452
0.00105106
0.00122077
0.00135526
0.00150913
0.00171636
0.00197689
0.00217628
0.00219957
0.00214968
0.00213342
0.00206432
0.00193007
0.00175936
0.00157098
0.00133468
0.00109318
0.000826972
0.000289997
0.000315916
0.000874118
0.00115771
0.00137234
0.00157909
0.00181126
0.00208352
0.00236431
0.00253076
0.00250734
0.00240154
0.00238319
0.00230518
0.00216439
0.00198241
0.00177322
0.00152717
0.00124353
0.000897319
0.000290152
0.000324953
0.000735337
0.00095972
0.00115398
0.00136333
0.00162179
0.0019308
0.00226109
0.0025205
0.00260263
0.00249182
0.00238216
0.00220308
0.00198647
0.00176049
0.00153179
0.00128853
0.00101358
0.000704136
0.00029514
0.000373328
0.000646893
0.000854526
0.00102718
0.00119702
0.00140733
0.00171764
0.00212828
0.00252197
0.00275257
0.00265296
0.00240462
0.00206849
0.0017327
0.00142314
0.00114524
0.00091487
0.000731526
0.000549355
0.000332613
0.000483534
0.000735541
0.000940032
0.00112697
0.00130851
0.00151541
0.00179566
0.00219
0.00264031
0.00296646
0.00288036
0.00249005
0.00199308
0.00154868
0.00120241
0.000965115
0.000809084
0.000682045
0.000553422
0.000393643
0.000587541
0.00102583
0.00126109
0.00149895
0.00173445
0.00197019
0.00223643
0.00256768
0.00296045
0.00326941
0.00316772
0.00268838
0.00212184
0.00167966
0.0013731
0.00114269
0.000963141
0.000817435
0.000698599
0.000526234
0.000667329
0.00126379
0.0017101
0.00209926
0.00240192
0.00264178
0.00284734
0.00303903
0.00324069
0.00340646
0.00324051
0.00283367
0.00246408
0.00219141
0.00194421
0.00169202
0.00143015
0.00117171
0.000962232
0.000625848
0.000739257
0.00129882
0.00195305
0.00263984
0.00308561
0.00334645
0.00350189
0.00354817
0.00351684
0.00348017
0.00334479
0.00320299
0.00314781
0.00311757
0.00297765
0.00269509
0.00228359
0.00162205
0.0010627
0.000712712
0.000804537
0.000914683
0.00101386
0.00110569
0.00119451
0.00128295
0.00137033
0.00145616
0.00153908
0.00161512
0.00166014
0.0015874
0.00150303
0.00141458
0.00132193
0.00122496
0.00112622
0.00102638
0.000920544
0.000803597
0.00026338
0.000300471
0.000325149
0.000344412
0.000364857
0.000390163
0.000417414
0.000448415
0.000483692
0.000523852
0.000537722
0.000523086
0.000499086
0.000459325
0.000422751
0.000389962
0.000363815
0.000337159
0.000304454
0.000258622
0.000294487
0.000822117
0.00112475
0.00135792
0.00155974
0.00175387
0.00197689
0.00220507
0.00231049
0.00219399
0.00201279
0.0021256
0.00215426
0.00206263
0.00189511
0.0016815
0.00142703
0.00118348
0.000906199
0.000290579
0.000319478
0.000906501
0.00124503
0.00153643
0.00181721
0.00209721
0.00236431
0.00255903
0.00260411
0.00249764
0.00227337
0.00230743
0.00235479
0.00231184
0.00217672
0.00197221
0.00171907
0.00141674
0.00102818
0.000294441
0.000335368
0.000820689
0.00109288
0.00134944
0.00163444
0.00195104
0.00226109
0.00251138
0.00267461
0.00282492
0.00261211
0.002383
0.00226076
0.00215705
0.00200948
0.0017916
0.00153664
0.00125522
0.000883789
0.000286606
0.000377293
0.00067407
0.00092735
0.00116627
0.00143138
0.00175353
0.00212828
0.0024856
0.00281712
0.00321978
0.00302267
0.00252763
0.00218506
0.00196744
0.00172641
0.00144294
0.00115259
0.000866948
0.00060702
0.000312897
0.000497262
0.00075044
0.000971689
0.00121651
0.00148578
0.00180302
0.00219
0.00261113
0.00303785
0.00356789
0.00341129
0.00270595
0.00217081
0.00179463
0.00143389
0.00111521
0.000872736
0.000695001
0.000538283
0.000382648
0.000600873
0.00104038
0.00131512
0.00160332
0.00190706
0.00221599
0.00256768
0.00298666
0.00341389
0.00385592
0.00370258
0.00296765
0.00231689
0.0018263
0.00144923
0.00116786
0.000945908
0.000774622
0.000659641
0.000530275
0.00068308
0.00129238
0.00177298
0.00221756
0.00254454
0.00280172
0.00303903
0.00331637
0.0036703
0.00399997
0.00382083
0.00317685
0.00258434
0.00218787
0.00190865
0.00165586
0.00139601
0.00113533
0.00094731
0.00063775
0.000759324
0.00134611
0.00205629
0.00278215
0.00316709
0.00340678
0.00354817
0.00362621
0.00374494
0.00397276
0.00387666
0.00346634
0.00317748
0.00307225
0.00295765
0.0026982
0.00231426
0.00165674
0.00107485
0.000730693
0.000829351
0.000948324
0.00105487
0.00115437
0.00125293
0.00135295
0.00145616
0.00156458
0.00168018
0.00179884
0.00186007
0.00174519
0.00162333
0.00150819
0.00139748
0.00128707
0.00117732
0.00106877
0.000955052
0.000829044
0.000261667
0.000304575
0.000334785
0.000360329
0.000386686
0.000417587
0.000451347
0.000483692
0.000506485
0.000544104
0.000548991
0.000538725
0.000512324
0.000469753
0.000425876
0.000389294
0.000362054
0.000334578
0.000301116
0.000255413
0.000295541
0.000849324
0.00118919
0.00146289
0.00171987
0.00196348
0.00217628
0.00231049
0.00228807
0.00229429
0.00214497
0.00196204
0.00208847
0.00206619
0.00193042
0.00173449
0.00148408
0.00124145
0.00095291
0.000286405
0.000325511
0.000942025
0.00133639
0.00168679
0.00202433
0.00232151
0.00253076
0.00260411
0.0026114
0.00307278
0.00291311
0.00224525
0.00218329
0.00225129
0.00223413
0.00207965
0.00183991
0.00152943
0.00110573
0.000293998
0.000350781
0.000845597
0.0012066
0.00155987
0.00192465
0.00227051
0.0025205
0.00267461
0.00301554
0.00383823
0.00371384
0.00267358
0.00215431
0.00209306
0.00210821
0.00196176
0.00170728
0.00139071
0.000974729
0.000288919
0.000395894
0.0007178
0.00104688
0.00139497
0.00177636
0.00217544
0.00252197
0.00281712
0.00348513
0.00454173
0.00445607
0.00316106
0.00223563
0.00196522
0.00189081
0.00168215
0.00139815
0.00108773
0.00072973
0.000290749
0.000508963
0.000770401
0.00104052
0.00138085
0.00177502
0.00220998
0.00264031
0.00303785
0.00387795
0.00507833
0.00504384
0.0035769
0.00235529
0.00190373
0.00165439
0.00133074
0.00101083
0.000738711
0.000532351
0.00038502
0.000608548
0.00103159
0.00134562
0.00170048
0.00209027
0.00250787
0.00296045
0.00341389
0.0041869
0.00537028
0.00537707
0.00387658
0.00253995
0.0019483
0.00155288
0.00121041
0.000935965
0.000736845
0.000627126
0.000532235
0.000690407
0.00127723
0.00178013
0.002264
0.00262668
0.00292404
0.00324069
0.00367031
0.00437669
0.00541368
0.00542307
0.0040845
0.00282208
0.0021828
0.00182711
0.00157027
0.00132336
0.00107631
0.000901133
0.000642273
0.000768939
0.00134778
0.00209315
0.00280154
0.00313469
0.00335261
0.00351684
0.00374495
0.00425397
0.00501011
0.00498865
0.00412615
0.00332227
0.00296372
0.00280653
0.00259481
0.0022443
0.00163256
0.00103982
0.000739739
0.000845576
0.000971742
0.00108502
0.00119251
0.00130121
0.00141502
0.00153908
0.00168018
0.00184574
0.00202681
0.00210086
0.00193226
0.00175406
0.00159958
0.00146418
0.00133823
0.00121711
0.00110001
0.000979152
0.000845857
0.000259095
0.000307459
0.000343269
0.000374988
0.000408619
0.000447732
0.000490968
0.000523853
0.000544104
0.000548841
0.000543272
0.000538626
0.000510494
0.000463842
0.000420205
0.000383458
0.000353546
0.000325952
0.00029553
0.000253322
0.000297159
0.000851283
0.00122292
0.00153371
0.0018199
0.00206044
0.00219958
0.002194
0.00229429
0.00148648
0.00133624
0.00195236
0.00184734
0.00189837
0.00182487
0.00166594
0.00147196
0.00124775
0.000944987
0.000278695
0.000333529
0.000940503
0.0013774
0.00177805
0.0021495
0.00241817
0.00250734
0.00249764
0.00307278
0.00232087
0.00208361
0.00261376
0.00191161
0.00198596
0.00212698
0.0020452
0.00183501
0.00153438
0.00110517
0.000289006
0.000367741
0.000850316
0.00126796
0.00170054
0.00212134
0.0024532
0.00260263
0.00282492
0.00383823
0.00316143
0.00285194
0.00331743
0.00210693
0.00186289
0.0020365
0.00198264
0.00174982
0.00142379
0.000985973
0.000287605
0.000418436
0.000758769
0.00114455
0.00160128
0.00206949
0.00248538
0.00275257
0.00321978
0.00454173
0.0040262
0.00364894
0.00399959
0.0024146
0.00178203
0.0018353
0.00172144
0.00144564
0.00111724
0.000744088
0.000294694
0.000515536
0.00079269
0.00112884
0.00157466
0.00207742
0.00257875
0.00296646
0.00356789
0.00507833
0.00485894
0.0044306
0.00458187
0.00270454
0.00177
0.00165846
0.00142592
0.0011017
0.000787585
0.000535619
0.000389304
0.000607639
0.00100371
0.00136333
0.0017964
0.00227798
0.00279629
0.00326941
0.00385593
0.00537029
0.00553088
0.00509185
0.00499417
0.00294628
0.00188989
0.00158589
0.00124623
0.000932368
0.000703544
0.000600566
0.000528911
0.00068704
0.00122646
0.00174699
0.00224509
0.00264176
0.00300079
0.00340646
0.00399998
0.00541368
0.00592695
0.00552014
0.00519144
0.00317477
0.00210912
0.00169398
0.00144275
0.00122338
0.00100768
0.000836189
0.000637426
0.000766548
0.00130717
0.00210478
0.00272413
0.00302286
0.00323688
0.00348017
0.00397277
0.00501012
0.00581601
0.00552859
0.0049532
0.00360175
0.00284877
0.00256577
0.00239274
0.00208727
0.00157298
0.000976298
0.000736179
0.000852009
0.000983693
0.00110274
0.00121771
0.00133621
0.00146547
0.00161512
0.00179884
0.00202682
0.00224913
0.0022885
0.0021292
0.00188558
0.00168006
0.00151369
0.00137038
0.001238
0.00111435
0.000988039
0.00084933
0.000258271
0.000310531
0.000350469
0.00038587
0.000421923
0.000461095
0.000502241
0.000537722
0.000548991
0.000543272
0.000505668
0.000490754
0.00046605
0.000433939
0.000398935
0.000368973
0.000343731
0.000319361
0.000291169
0.000249653
0.000301398
0.000826763
0.00120949
0.00153986
0.00183493
0.00206217
0.00214968
0.00201279
0.00214497
0.00133623
0.000998884
0.00149211
0.00144524
0.00157428
0.00157353
0.00146244
0.00131513
0.00113403
0.000862684
0.000268866
0.000343046
0.000895381
0.00133619
0.00175357
0.00213093
0.00237969
0.00240154
0.00227337
0.00291312
0.00208361
0.00148712
0.00222005
0.00153824
0.00172841
0.00193874
0.00188399
0.00169883
0.0014239
0.0010239
0.000280329
0.00038279
0.000827989
0.00124825
0.0016947
0.00211814
0.00242245
0.00249181
0.00261211
0.00371385
0.00285194
0.00197441
0.00299982
0.00176373
0.00164395
0.00192345
0.00189285
0.00167003
0.00135193
0.000929424
0.000283803
0.000434923
0.000777991
0.00118158
0.00165837
0.00212009
0.00249143
0.00265296
0.00302267
0.00445608
0.00364893
0.00248145
0.00373952
0.00206076
0.00153406
0.0017319
0.00165328
0.00138647
0.00106242
0.000699725
0.000301454
0.000518248
0.000815373
0.00119738
0.00168081
0.00217711
0.0026201
0.00288036
0.00341129
0.00504386
0.0044306
0.00300277
0.00434521
0.00232928
0.00147226
0.0015227
0.00134251
0.00104863
0.000758187
0.000527108
0.000393599
0.000604172
0.000986551
0.00138282
0.00185491
0.00234024
0.00281201
0.00316772
0.00370258
0.00537709
0.00509184
0.0035022
0.00474668
0.00258954
0.00156797
0.00143431
0.00116827
0.000900238
0.000692043
0.000591015
0.00052474
0.000683209
0.00119449
0.00172097
0.00220374
0.00258204
0.00290184
0.00324051
0.00382084
0.00542309
0.00552013
0.00393695
0.00486432
0.00281434
0.00178544
0.00150141
0.00132001
0.00114329
0.0009636
0.00080045
0.000631712
0.000765133
0.00128656
0.00213331
0.00266439
0.00293424
0.00311769
0.0033448
0.00387667
0.00498866
0.00552859
0.00426772
0.00457219
0.00329499
0.00255566
0.00236354
0.00226643
0.00198875
0.00152585
0.000951995
0.000730835
0.000858678
0.000993716
0.00111624
0.00123565
0.00136039
0.00149827
0.00166015
0.00186007
0.00210086
0.0022885
0.00206716
0.00213445
0.00190602
0.0016924
0.00152036
0.00137393
0.00123897
0.00111481
0.000987516
0.00084756
0.000263079
0.000316098
0.000356632
0.000391199
0.000423888
0.000457397
0.000492176
0.000523086
0.000538725
0.000538626
0.000490755
0.000395029
0.000375278
0.000376291
0.000362393
0.000345183
0.000327296
0.000307427
0.000282273
0.00024322
0.000306898
0.000788238
0.00115143
0.00146994
0.00175525
0.00199097
0.00213342
0.0021256
0.00196204
0.00195236
0.00149212
0.00105253
0.001182
0.00127582
0.00127667
0.00121744
0.00112325
0.000984666
0.000756359
0.00025869
0.000348924
0.000827387
0.001228
0.00161642
0.00197945
0.00225917
0.00238318
0.00230743
0.00224525
0.00261376
0.00222005
0.00144879
0.00147555
0.00170928
0.00178045
0.00169391
0.00152434
0.00127815
0.000919995
0.000271839
0.000389637
0.000785869
0.00115452
0.00154025
0.00191921
0.00223486
0.00238216
0.00238299
0.00267359
0.00331744
0.00299982
0.00194209
0.00155516
0.0017452
0.00188058
0.00177057
0.00154664
0.00124973
0.00086024
0.000278045
0.000442889
0.000772037
0.00112556
0.00150529
0.00187264
0.00220458
0.00240462
0.00252763
0.00316106
0.00399959
0.00373952
0.00245895
0.00159461
0.00160177
0.00171047
0.00154954
0.00129001
0.00099204
0.000659219
0.000300668
0.000523218
0.000832448
0.0011765
0.00154869
0.00190509
0.00223755
0.00249005
0.00270595
0.00357691
0.00458188
0.00434521
0.00289903
0.00161232
0.00143425
0.00142022
0.00120326
0.000950586
0.00070968
0.000518615
0.000402243
0.000608418
0.00099859
0.00136699
0.00174568
0.00208704
0.00239712
0.00268838
0.00296766
0.00387659
0.00499418
0.00474668
0.00328125
0.0017666
0.00141305
0.00123738
0.00102055
0.000831839
0.00068609
0.000608453
0.000529717
0.00068929
0.00121293
0.00169499
0.00212338
0.00242646
0.00263024
0.00283367
0.00317686
0.00408452
0.00519145
0.00486432
0.00357664
0.00208265
0.00162043
0.00143442
0.001297
0.00114261
0.000966669
0.000806383
0.000636388
0.000773111
0.00131959
0.00208308
0.00267424
0.00294557
0.00308661
0.003203
0.00346635
0.00412616
0.00495321
0.00457219
0.00378324
0.00287596
0.00255878
0.00251562
0.00240424
0.00207527
0.00150357
0.000956075
0.000735971
0.000860484
0.000990187
0.00110667
0.0012183
0.0013318
0.0014524
0.0015874
0.00174519
0.00193227
0.0021292
0.00213446
0.00197227
0.00178074
0.00161745
0.00147906
0.00135213
0.00122921
0.00111
0.000986533
0.000850547
0.000265249
0.000315043
0.00035289
0.000384462
0.000413483
0.000442102
0.00047159
0.000499086
0.000512324
0.000510494
0.000466052
0.000375279
0.000338213
0.000330801
0.000327588
0.000319007
0.000307282
0.000291465
0.000269344
0.000234201
0.000303106
0.000761963
0.00109504
0.00138185
0.00164256
0.00187595
0.00206432
0.00215426
0.00208846
0.00184734
0.00144524
0.00118201
0.00111684
0.00112249
0.00110967
0.00107771
0.00101457
0.000897713
0.000692164
0.00025116
0.00033965
0.000781365
0.00113205
0.00146731
0.00179567
0.00209091
0.00230518
0.00235478
0.00218329
0.00191161
0.00153824
0.00147555
0.00161204
0.00170352
0.00167607
0.00157499
0.00141651
0.00119147
0.000862058
0.00026595
0.000375083
0.000740002
0.00104756
0.00135422
0.00166467
0.00196835
0.00220308
0.00226076
0.00215431
0.00210693
0.00176374
0.00155516
0.00168099
0.00184947
0.00181819
0.00166683
0.00145229
0.00118046
0.000821666
0.00027225
0.000427306
0.000726717
0.00100642
0.00127833
0.00154331
0.00181583
0.00206849
0.00218506
0.00223563
0.00241461
0.00206077
0.00159461
0.00155967
0.00170805
0.00162768
0.0014276
0.00118546
0.000918345
0.000621126
0.000295923
0.000516844
0.000800639
0.00105521
0.0013025
0.00152932
0.00175231
0.00199308
0.0021708
0.0023553
0.00270454
0.00232928
0.00161232
0.00140048
0.00142337
0.00126197
0.00105341
0.000847673
0.000661414
0.00051277
0.000406093
0.000606868
0.000991787
0.00127787
0.00153791
0.00175187
0.00192867
0.00212184
0.00231689
0.00253996
0.00294629
0.00258955
0.00176661
0.00140349
0.00125239
0.00106253
0.000912055
0.000781167
0.000685913
0.000636627
0.000535025
0.000687727
0.00121739
0.00163984
0.00201414
0.00225727
0.00238455
0.00246408
0.00258434
0.00282209
0.00317479
0.00281435
0.00208266
0.00169662
0.00153361
0.00142852
0.00131153
0.00116793
0.000989946
0.000836264
0.000638934
0.000769173
0.00131655
0.00201251
0.0026646
0.0029613
0.00309916
0.00314781
0.00317748
0.00332228
0.00360176
0.00329499