/*--------------------------------*- C++ -*----------------------------------*\
| =========                 |                                                 |
| \\      /  F ield         | OpenFOAM: The Open Source CFD Toolbox           |
|  \\    /   O peration     | Version:  1.7.1                                 |
|   \\  /    A nd           | Web:      www.OpenFOAM.com                      |
|    \\/     M anipulation  |                                                 |
\*---------------------------------------------------------------------------*/
FoamFile
{
    version     2.0;
    format      ascii;
    class       volScalarField;
    location    "600";
    object      epsilon;
}
// * * * * * * * * * * * * * * * * * * * * * * * * * * * * * * * * * * * * * //

dimensions      [0 2 -3 0 0 0 0];

internalField   nonuniform List<scalar> 
4000
(
7.93176e-08
8.53514e-08
8.81787e-08
9.12927e-08
9.80876e-08
1.04593e-07
1.08538e-07
1.09183e-07
1.06301e-07
1.01587e-07
9.88857e-08
1.041e-07
1.08765e-07
1.088e-07
1.07211e-07
1.04875e-07
1.01638e-07
9.68641e-08
9.04653e-08
8.2618e-08
1.09725e-07
1.1932e-07
1.27008e-07
1.3544e-07
1.40587e-07
1.4443e-07
1.49104e-07
1.51291e-07
1.50665e-07
1.49324e-07
1.52249e-07
1.61118e-07
1.59534e-07
1.49171e-07
1.37412e-07
1.27664e-07
1.19403e-07
1.13992e-07
1.07168e-07
1.02251e-07
1.89524e-07
1.9077e-07
1.88284e-07
1.84714e-07
1.80204e-07
1.80285e-07
1.87107e-07
1.91467e-07
1.98856e-07
2.08298e-07
2.22968e-07
2.37469e-07
2.2611e-07
1.97657e-07
1.69078e-07
1.49426e-07
1.37546e-07
1.464e-07
1.49679e-07
1.52764e-07
3.92908e-07
3.54069e-07
3.24381e-07
2.95709e-07
2.67035e-07
2.46178e-07
2.11062e-07
2.21762e-07
2.49848e-07
2.82681e-07
3.17337e-07
3.40649e-07
3.13919e-07
2.55171e-07
2.00585e-07
1.88747e-07
2.05523e-07
2.25276e-07
2.53469e-07
2.89661e-07
6.45933e-07
6.00203e-07
5.21534e-07
4.54865e-07
4.03084e-07
3.60944e-07
3.22985e-07
3.23869e-07
3.66049e-07
4.27511e-07
4.81925e-07
5.18392e-07
4.79147e-07
3.97779e-07
3.30703e-07
3.04483e-07
3.20549e-07
3.63506e-07
4.43188e-07
5.46115e-07
7.50479e-07
7.54075e-07
7.32832e-07
6.93053e-07
6.61361e-07
6.62664e-07
7.02843e-07
7.55474e-07
8.01482e-07
8.27576e-07
8.43849e-07
8.76737e-07
8.55227e-07
7.80185e-07
6.95506e-07
6.27806e-07
5.95048e-07
6.1158e-07
6.47149e-07
6.75388e-07
8.2819e-07
8.86422e-07
9.38821e-07
9.99758e-07
1.07372e-06
1.16141e-06
1.25291e-06
1.33198e-06
1.37867e-06
1.37138e-06
1.35351e-06
1.38654e-06
1.37891e-06
1.30698e-06
1.19668e-06
1.07701e-06
9.69355e-07
8.85773e-07
8.28142e-07
7.72707e-07
8.99026e-07
1.02634e-06
1.17158e-06
1.32963e-06
1.49796e-06
1.66898e-06
1.82835e-06
1.95416e-06
2.0141e-06
1.98395e-06
1.9551e-06
2.008e-06
1.99434e-06
1.89457e-06
1.73596e-06
1.54856e-06
1.35566e-06
1.17334e-06
1.00901e-06
8.59018e-07
9.8282e-07
1.18894e-06
1.42982e-06
1.68576e-06
1.9551e-06
2.22679e-06
2.48003e-06
2.67951e-06
2.7779e-06
2.749e-06
2.73406e-06
2.81778e-06
2.77488e-06
2.60366e-06
2.35009e-06
2.0588e-06
1.76076e-06
1.47396e-06
1.20091e-06
9.51041e-07
1.09509e-06
1.40284e-06
1.75167e-06
2.10636e-06
2.47067e-06
2.83459e-06
3.17918e-06
3.47332e-06
3.67527e-06
3.75564e-06
3.83845e-06
3.85706e-06
3.6995e-06
3.41684e-06
3.05753e-06
2.65918e-06
2.24997e-06
1.84856e-06
1.4524e-06
1.07857e-06
8.53516e-08
1.04907e-07
1.15964e-07
1.23249e-07
1.30413e-07
1.42751e-07
1.53947e-07
1.62251e-07
1.65959e-07
1.65612e-07
1.65694e-07
1.75745e-07
1.80264e-07
1.72754e-07
1.61484e-07
1.49243e-07
1.36815e-07
1.24526e-07
1.11177e-07
9.4895e-08
1.1932e-07
1.37028e-07
1.50294e-07
1.51979e-07
1.43951e-07
1.36463e-07
1.40836e-07
1.48498e-07
1.57927e-07
1.70661e-07
1.85391e-07
1.8968e-07
1.7453e-07
1.53759e-07
1.36064e-07
1.23338e-07
1.20037e-07
1.29076e-07
1.25592e-07
1.16962e-07
1.9077e-07
1.88023e-07
1.98526e-07
2.0741e-07
2.07223e-07
1.96329e-07
1.78257e-07
1.75769e-07
1.80268e-07
1.94147e-07
2.11273e-07
2.19659e-07
2.03916e-07
1.77389e-07
1.57252e-07
1.48618e-07
1.55994e-07
1.54193e-07
1.4833e-07
1.59065e-07
3.54069e-07
3.56335e-07
3.25967e-07
2.96621e-07
2.73381e-07
2.61729e-07
2.51945e-07
2.27495e-07
2.24303e-07
2.46342e-07
2.76686e-07
2.981e-07
2.76973e-07
2.33037e-07
1.99495e-07
1.93206e-07
2.02301e-07
2.2918e-07
2.68994e-07
2.85912e-07
6.00203e-07
6.0413e-07
5.25026e-07
4.46781e-07
3.85972e-07
3.41982e-07
3.09126e-07
2.93236e-07
3.21554e-07
3.66293e-07
4.13074e-07
4.48367e-07
4.16206e-07
3.44565e-07
2.85107e-07
2.78545e-07
3.12436e-07
3.84591e-07
4.9599e-07
5.44084e-07
7.54075e-07
7.13647e-07
6.97569e-07
6.51299e-07
6.00969e-07
5.6817e-07
5.56028e-07
5.76924e-07
6.02939e-07
6.32749e-07
6.65201e-07
7.02323e-07
6.80227e-07
6.21222e-07
5.65405e-07
5.27985e-07
5.34393e-07
5.80107e-07
6.31962e-07
6.88001e-07
8.86422e-07
8.01816e-07
8.4834e-07
9.16943e-07
9.89162e-07
1.05252e-06
1.11177e-06
1.14051e-06
1.1355e-06
1.10097e-06
1.07679e-06
1.10027e-06
1.10495e-06
1.07565e-06
1.01842e-06
9.39412e-07
8.52062e-07
7.76407e-07
7.3503e-07
8.07882e-07
1.02634e-06
9.47366e-07
1.0706e-06
1.23618e-06
1.42319e-06
1.60379e-06
1.75141e-06
1.841e-06
1.84445e-06
1.76374e-06
1.69863e-06
1.74294e-06
1.76343e-06
1.70818e-06
1.58289e-06
1.40803e-06
1.2129e-06
1.02829e-06
8.9587e-07
9.36196e-07
1.18894e-06
1.24834e-06
1.51258e-06
1.81945e-06
2.16125e-06
2.51501e-06
2.8434e-06
3.08379e-06
3.16418e-06
3.05593e-06
2.97154e-06
3.10285e-06
3.10147e-06
2.91906e-06
2.60646e-06
2.23607e-06
1.86389e-06
1.52012e-06
1.23023e-06
1.11445e-06
1.40284e-06
1.83641e-06
2.34792e-06
2.89386e-06
3.47611e-06
4.07631e-06
4.66184e-06
5.17983e-06
5.56231e-06
5.76394e-06
5.93269e-06
5.86219e-06
5.53499e-06
5.02191e-06
4.40099e-06
3.73662e-06
3.07794e-06
2.45682e-06
1.87571e-06
1.36364e-06
8.8179e-08
1.15964e-07
1.3413e-07
1.47101e-07
1.58035e-07
1.71322e-07
1.88572e-07
2.06085e-07
2.19587e-07
2.28153e-07
2.34286e-07
2.48871e-07
2.51741e-07
2.35812e-07
2.14393e-07
1.91825e-07
1.69488e-07
1.50256e-07
1.29434e-07
1.04377e-07
1.27008e-07
1.50295e-07
1.63534e-07
1.68679e-07
1.68594e-07
1.68602e-07
1.73154e-07
1.83797e-07
1.99057e-07
2.19458e-07
2.4042e-07
2.40902e-07
2.16497e-07
1.88072e-07
1.65444e-07
1.49848e-07
1.45922e-07
1.48179e-07
1.36685e-07
1.23803e-07
1.88284e-07
1.98526e-07
2.13575e-07
2.21545e-07
2.20626e-07
2.12933e-07
2.03861e-07
2.07295e-07
2.19883e-07
2.39966e-07
2.58709e-07
2.59144e-07
2.32527e-07
1.99072e-07
1.76167e-07
1.66463e-07
1.68818e-07
1.63811e-07
1.52701e-07
1.58233e-07
3.24382e-07
3.25968e-07
3.17775e-07
3.03679e-07
2.90785e-07
2.84478e-07
2.78874e-07
2.5682e-07
2.58519e-07
2.83441e-07
3.15105e-07
3.27995e-07
2.94282e-07
2.44903e-07
2.13796e-07
2.09852e-07
2.15695e-07
2.34734e-07
2.6003e-07
2.67435e-07
5.21535e-07
5.25026e-07
4.83817e-07
4.31929e-07
3.86618e-07
3.52731e-07
3.29561e-07
3.20215e-07
3.45841e-07
3.89241e-07
4.4378e-07
4.7204e-07
4.19e-07
3.37851e-07
2.81898e-07
2.79478e-07
3.143e-07
3.80723e-07
4.69004e-07
5.02617e-07
7.32832e-07
6.9757e-07
6.5462e-07
6.01988e-07
5.54218e-07
5.17542e-07
4.94304e-07
4.92728e-07
5.27458e-07
5.89299e-07
6.60108e-07
6.98785e-07
6.26547e-07
5.28195e-07
4.66362e-07
4.48664e-07
4.75245e-07
5.41756e-07
6.21916e-07
6.85255e-07
9.38822e-07
8.4834e-07
8.42185e-07
8.516e-07
8.56931e-07
8.68493e-07
8.96435e-07
9.44465e-07
9.76328e-07
9.98399e-07
1.03322e-06
1.06783e-06
1.00294e-06
9.09562e-07
8.30308e-07
7.70386e-07
7.40566e-07
7.29833e-07
7.50309e-07
8.50976e-07
1.17158e-06
1.0706e-06
1.16355e-06
1.30589e-06
1.47409e-06
1.64509e-06
1.79891e-06
1.90063e-06
1.91184e-06
1.82757e-06
1.76884e-06
1.83317e-06
1.82875e-06
1.72839e-06
1.56815e-06
1.38404e-06
1.20605e-06
1.06333e-06
9.8042e-07
1.05892e-06
1.42982e-06
1.51258e-06
1.90272e-06
2.38917e-06
2.93982e-06
3.51286e-06
4.04211e-06
4.38834e-06
4.439e-06
4.21441e-06
4.06225e-06
4.30799e-06
4.36894e-06
4.12084e-06
3.6213e-06
3.00703e-06
2.3997e-06
1.87117e-06
1.46672e-06
1.32857e-06
1.75167e-06
2.34792e-06
3.04435e-06
3.80148e-06
4.62048e-06
5.47726e-06
6.3294e-06
7.10503e-06
7.71404e-06
8.08804e-06
8.37617e-06
8.15385e-06
7.59849e-06
6.81173e-06
5.89781e-06
4.94399e-06
4.01858e-06
3.16417e-06
2.38673e-06
1.71238e-06
9.12932e-08
1.23249e-07
1.47101e-07
1.65424e-07
1.82403e-07
2.00441e-07
2.22263e-07
2.46966e-07
2.74317e-07
2.9648e-07
3.10371e-07
3.26217e-07
3.24501e-07
2.98479e-07
2.66125e-07
2.32661e-07
2.01493e-07
1.74108e-07
1.4498e-07
1.09885e-07
1.3544e-07
1.51979e-07
1.6868e-07
1.79972e-07
1.89753e-07
2.01043e-07
2.1447e-07
2.31634e-07
2.54313e-07
2.81721e-07
3.04237e-07
2.94677e-07
2.59053e-07
2.23636e-07
1.97318e-07
1.79236e-07
1.69589e-07
1.61446e-07
1.43235e-07
1.28437e-07
1.84714e-07
2.07411e-07
2.21545e-07
2.26155e-07
2.25743e-07
2.25103e-07
2.30339e-07
2.48453e-07
2.76845e-07
3.08503e-07
3.25596e-07
3.08158e-07
2.6398e-07
2.2154e-07
1.94125e-07
1.79283e-07
1.74289e-07
1.65337e-07
1.50786e-07
1.53493e-07
2.95709e-07
2.96621e-07
3.03679e-07
3.01963e-07
2.98109e-07
2.95182e-07
2.90393e-07
2.85989e-07
3.11654e-07
3.54318e-07
3.86282e-07
3.73467e-07
3.14751e-07
2.55313e-07
2.21914e-07
2.15395e-07
2.16257e-07
2.23485e-07
2.33595e-07
2.41156e-07
4.54865e-07
4.46781e-07
4.31929e-07
4.05929e-07
3.79289e-07
3.5803e-07
3.4629e-07
3.5191e-07
3.93989e-07
4.61974e-07
5.28386e-07
5.21804e-07
4.29538e-07
3.35043e-07
2.80716e-07
2.75053e-07
2.99972e-07
3.4654e-07
4.01973e-07
4.21898e-07
6.93054e-07
6.51299e-07
6.01989e-07
5.57593e-07
5.19478e-07
4.90868e-07
4.75114e-07
4.81458e-07
5.4045e-07
6.46398e-07
7.55959e-07
7.56961e-07
6.1628e-07
4.77205e-07
4.08196e-07
3.98432e-07
4.30109e-07
4.93221e-07
5.77618e-07
6.46026e-07
9.99759e-07
9.16943e-07
8.516e-07
8.05224e-07
7.91307e-07
7.97016e-07
8.23764e-07
8.76535e-07
9.46226e-07
1.04242e-06
1.14753e-06
1.1568e-06
9.88556e-07
8.08731e-07
7.04165e-07
6.51897e-07
6.50188e-07
7.00602e-07
7.71941e-07
8.71342e-07
1.32963e-06
1.23618e-06
1.30589e-06
1.41744e-06
1.54198e-06
1.69809e-06
1.88546e-06
2.05521e-06
2.11993e-06
2.03669e-06
1.99129e-06
2.07399e-06
2.02051e-06
1.84258e-06
1.59865e-06
1.38062e-06
1.22786e-06
1.12513e-06
1.07851e-06
1.17453e-06
1.68576e-06
1.81945e-06
2.38917e-06
3.16824e-06
4.05348e-06
4.91731e-06
5.6626e-06
6.11034e-06
6.10993e-06
5.82938e-06
5.75982e-06
6.00111e-06
6.07605e-06
5.77938e-06
5.07158e-06
4.12606e-06
3.15313e-06
2.29363e-06
1.71132e-06
1.54973e-06
2.10636e-06
2.89386e-06
3.80149e-06
4.79576e-06
5.87623e-06
7.018e-06
8.17784e-06
9.27117e-06
1.01927e-05
1.08348e-05
1.13047e-05
1.08252e-05
9.93815e-06
8.80031e-06
7.53898e-06
6.25661e-06
5.03579e-06
3.92275e-06
2.92679e-06
2.06522e-06
9.8088e-08
1.30414e-07
1.58036e-07
1.82404e-07
2.04709e-07
2.30152e-07
2.62714e-07
2.96708e-07
3.41774e-07
3.84354e-07
4.05395e-07
4.1444e-07
4.03338e-07
3.63388e-07
3.17778e-07
2.72024e-07
2.31656e-07
1.95339e-07
1.56842e-07
1.12087e-07
1.40587e-07
1.43952e-07
1.68594e-07
1.89753e-07
2.10531e-07
2.34464e-07
2.62962e-07
2.96716e-07
3.34223e-07
3.70277e-07
3.8587e-07
3.56113e-07
3.06251e-07
2.62741e-07
2.31936e-07
2.09782e-07
1.91732e-07
1.72313e-07
1.47538e-07
1.336e-07
1.80204e-07
2.07223e-07
2.20626e-07
2.25743e-07
2.29786e-07
2.39833e-07
2.63457e-07
3.05987e-07
3.62974e-07
4.15359e-07
4.22078e-07
3.69427e-07
3.0155e-07
2.46663e-07
2.12887e-07
1.90819e-07
1.7755e-07
1.64553e-07
1.47318e-07
1.471e-07
2.67036e-07
2.73381e-07
2.90786e-07
2.98109e-07
2.99301e-07
2.97409e-07
2.9942e-07
3.25734e-07
3.92603e-07
4.72841e-07
4.9851e-07
4.32497e-07
3.37828e-07
2.65379e-07
2.26875e-07
2.14717e-07
2.11134e-07
2.0791e-07
2.05379e-07
2.12513e-07
4.03084e-07
3.85972e-07
3.86618e-07
3.79289e-07
3.67974e-07
3.58266e-07
3.59569e-07
3.87762e-07
4.70168e-07
5.94091e-07
6.66127e-07
5.81002e-07
4.38674e-07
3.31139e-07
2.77442e-07
2.65373e-07
2.75619e-07
3.00273e-07
3.28029e-07
3.47487e-07
6.61361e-07
6.0097e-07
5.54218e-07
5.19478e-07
4.93163e-07
4.7674e-07
4.76332e-07
5.06523e-07
6.1637e-07
7.95847e-07
9.32632e-07
8.27884e-07
6.12287e-07
4.4467e-07
3.69861e-07
3.59605e-07
3.84323e-07
4.31832e-07
4.92846e-07
5.50026e-07
1.07372e-06
9.89163e-07
8.56931e-07
7.91307e-07
7.75081e-07
7.93193e-07
8.42567e-07
9.28899e-07
1.03661e-06
1.22673e-06
1.38953e-06
1.2729e-06
9.92635e-07
7.56891e-07
6.37674e-07
5.82512e-07
5.86835e-07
6.44807e-07
7.67163e-07
8.7454e-07
1.49796e-06
1.42319e-06
1.47409e-06
1.54198e-06
1.6932e-06
1.92377e-06
2.18684e-06
2.41082e-06
2.50491e-06
2.46214e-06
2.43568e-06
2.38323e-06
2.24959e-06
2.0184e-06
1.69371e-06
1.40062e-06
1.21634e-06
1.17383e-06
1.18174e-06
1.28267e-06
1.9551e-06
2.16125e-06
2.93982e-06
4.05348e-06
5.16341e-06
6.20469e-06
7.17647e-06
7.77731e-06
7.74143e-06
7.29918e-06
7.26768e-06
7.65536e-06
7.86237e-06
7.48085e-06
6.49659e-06
5.26379e-06
3.99789e-06
2.75887e-06
1.9723e-06
1.76897e-06
2.47067e-06
3.47612e-06
4.62048e-06
5.87623e-06
7.24052e-06
8.7122e-06
1.02664e-05
1.17977e-05
1.31708e-05
1.42324e-05
1.49984e-05
1.40669e-05
1.2692e-05
1.10745e-05
9.35785e-06
7.68098e-06
6.13011e-06
4.73267e-06
3.49423e-06
2.4201e-06
1.04594e-07
1.42751e-07
1.71323e-07
2.00442e-07
2.30152e-07
2.61853e-07
3.11328e-07
3.66263e-07
4.36394e-07
5.09204e-07
5.32074e-07
5.22246e-07
4.93771e-07
4.33231e-07
3.69681e-07
3.09272e-07
2.59035e-07
2.13517e-07
1.65621e-07
1.11868e-07
1.44431e-07
1.36464e-07
1.68603e-07
2.01044e-07
2.34464e-07
2.73582e-07
3.2456e-07
3.89613e-07
4.56227e-07
5.03841e-07
4.99126e-07
4.37464e-07
3.67341e-07
3.11991e-07
2.7223e-07
2.41705e-07
2.13831e-07
1.84008e-07
1.523e-07
1.40457e-07
1.80285e-07
1.96329e-07
2.12934e-07
2.25104e-07
2.39833e-07
2.65957e-07
3.14191e-07
3.94699e-07
4.98029e-07
5.85973e-07
5.70659e-07
4.59251e-07
3.56105e-07
2.85163e-07
2.40063e-07
2.08164e-07
1.8474e-07
1.6549e-07
1.45284e-07
1.42887e-07
2.46178e-07
2.61729e-07
2.84478e-07
2.95182e-07
2.97409e-07
3.00147e-07
3.22879e-07
3.95777e-07
5.30712e-07
6.936e-07
6.99106e-07
5.30908e-07
3.79671e-07
2.86826e-07
2.38761e-07
2.1624e-07
2.07405e-07
1.9684e-07
1.84276e-07
1.85228e-07
3.60945e-07
3.41982e-07
3.52731e-07
3.5803e-07
3.58266e-07
3.60266e-07
3.79018e-07
4.46203e-07
6.08519e-07
8.54791e-07
9.17613e-07
6.79032e-07
4.61931e-07
3.35259e-07
2.78013e-07
2.58702e-07
2.53859e-07
2.59341e-07
2.67282e-07
2.83681e-07
6.62665e-07
5.68171e-07
5.17543e-07
4.90869e-07
4.7674e-07
4.75494e-07
4.9813e-07
5.73498e-07
7.74085e-07
1.09816e-06
1.24078e-06
9.27024e-07
6.18583e-07
4.2927e-07
3.4572e-07
3.28374e-07
3.39736e-07
3.68536e-07
4.08512e-07
4.52916e-07
1.16141e-06
1.05253e-06
8.68493e-07
7.97016e-07
7.93193e-07
8.36651e-07
9.2259e-07
1.05816e-06
1.24769e-06
1.57474e-06
1.76596e-06
1.40061e-06
1.00284e-06
7.3809e-07
6.05019e-07
5.37563e-07
5.3285e-07
5.86005e-07
7.18483e-07
8.78648e-07
1.66898e-06
1.60379e-06
1.64509e-06
1.6981e-06
1.92377e-06
2.24408e-06
2.57718e-06
2.83263e-06
2.93871e-06
2.98562e-06
2.97099e-06
2.72022e-06
2.50337e-06
2.2252e-06
1.83527e-06
1.46364e-06
1.21603e-06
1.17037e-06
1.27943e-06
1.38531e-06
2.22679e-06
2.51501e-06
3.51286e-06
4.91731e-06
6.20469e-06
7.61058e-06
8.79629e-06
9.37447e-06
9.09557e-06
8.53588e-06
8.60192e-06
8.91169e-06
9.28978e-06
9.02579e-06
7.81175e-06
6.1576e-06
4.60067e-06
3.20192e-06
2.23412e-06
1.98045e-06
2.83459e-06
4.07631e-06
5.47726e-06
7.01801e-06
8.7122e-06
1.06135e-05
1.26544e-05
1.47754e-05
1.68441e-05
1.86631e-05
1.99256e-05
1.81504e-05
1.59731e-05
1.36777e-05
1.13891e-05
9.21754e-06
7.27599e-06
5.57463e-06
4.07581e-06
2.77058e-06
1.08538e-07
1.53948e-07
1.88573e-07
2.22264e-07
2.62715e-07
3.11329e-07
3.72547e-07
4.54041e-07
5.6144e-07
6.79427e-07
6.94428e-07
6.54177e-07
6.00586e-07
5.06773e-07
4.18498e-07
3.41571e-07
2.81775e-07
2.27983e-07
1.71786e-07
1.09974e-07
1.49105e-07
1.40836e-07
1.73154e-07
2.1447e-07
2.62963e-07
3.2456e-07
4.08199e-07
5.23442e-07
6.42013e-07
7.17969e-07
6.81458e-07
5.6139e-07
4.59257e-07
3.77821e-07
3.18619e-07
2.72805e-07
2.33713e-07
1.95774e-07
1.58802e-07
1.4686e-07
1.87107e-07
1.78257e-07
2.03861e-07
2.30339e-07
2.63457e-07
3.14191e-07
3.97116e-07
5.3487e-07
7.20703e-07
9.37208e-07
9.05757e-07
6.42211e-07
4.56303e-07
3.47961e-07
2.81559e-07
2.35418e-07
1.99852e-07
1.71079e-07
1.45436e-07
1.4602e-07
2.11062e-07
2.51945e-07
2.78874e-07
2.90393e-07
2.99421e-07
3.22879e-07
3.88273e-07
5.32427e-07
8.1439e-07
1.27322e-06
1.2781e-06
7.9119e-07
4.87484e-07
3.42796e-07
2.70707e-07
2.31593e-07
2.09539e-07
1.92438e-07
1.71436e-07
1.60512e-07
3.22985e-07
3.09127e-07
3.29561e-07
3.4629e-07
3.59569e-07
3.79018e-07
4.29855e-07
5.78406e-07
9.48443e-07
1.66268e-06
1.7565e-06
1.0013e-06
5.62258e-07
3.73608e-07
2.95442e-07
2.63425e-07
2.46446e-07
2.33826e-07
2.25e-07
2.31139e-07
7.02844e-07
5.56028e-07
4.94304e-07
4.75114e-07
4.76332e-07
4.9813e-07
5.58755e-07
7.25549e-07
1.1615e-06
2.05632e-06
2.28904e-06
1.27995e-06
7.00551e-07
4.5115e-07
3.44417e-07
3.10875e-07
3.05055e-07
3.16129e-07
3.40407e-07
3.83292e-07
1.25291e-06
1.11177e-06
8.96436e-07
8.23765e-07
8.42567e-07
9.22591e-07
1.05907e-06
1.27412e-06
1.70154e-06
2.60383e-06
2.92187e-06
1.77117e-06
1.07071e-06
7.53562e-07
5.95603e-07
5.07412e-07
4.84747e-07
5.25285e-07
6.59932e-07
8.87806e-07
1.82835e-06
1.75141e-06
1.79891e-06
1.88547e-06
2.18684e-06
2.57718e-06
2.94502e-06
3.19676e-06
3.37765e-06
3.81583e-06
3.96221e-06
3.15713e-06
2.70477e-06
2.37497e-06
1.9552e-06
1.52366e-06
1.21434e-06
1.14689e-06
1.34776e-06
1.47863e-06
2.48003e-06
2.8434e-06
4.04211e-06
5.6626e-06
7.17647e-06
8.79629e-06
1.00162e-05
1.03746e-05
9.97238e-06
9.93378e-06
1.04444e-05
1.00267e-05
1.02242e-05
1.02279e-05
9.0363e-06
7.01693e-06
5.06327e-06
3.55567e-06
2.47347e-06
2.17444e-06
3.17918e-06
4.66185e-06
6.32941e-06
8.17785e-06
1.02664e-05
1.26544e-05
1.53415e-05
1.83273e-05
2.15609e-05
2.48394e-05
2.69813e-05
2.36013e-05
2.0031e-05
1.66994e-05
1.36396e-05
1.08711e-05
8.46512e-06
6.42498e-06
4.64983e-06
3.10414e-06
1.09183e-07
1.62252e-07
2.06086e-07
2.46968e-07
2.9671e-07
3.66264e-07
4.54042e-07
5.67694e-07
7.04394e-07
8.47149e-07
8.618e-07
7.92603e-07
7.12358e-07
5.72536e-07
4.55703e-07
3.62824e-07
2.95496e-07
2.35882e-07
1.74056e-07
1.06853e-07
1.51292e-07
1.48498e-07
1.83797e-07
2.31635e-07
2.96717e-07
3.89613e-07
5.23443e-07
7.06174e-07
8.94051e-07
1.09365e-06
1.03169e-06
7.69461e-07
5.86478e-07
4.5823e-07
3.65925e-07
2.96897e-07
2.46548e-07
2.03109e-07
1.63191e-07
1.4826e-07
1.91468e-07
1.75769e-07
2.07295e-07
2.48454e-07
3.05988e-07
3.94699e-07
5.3487e-07
7.61569e-07
1.15284e-06
2.02514e-06
2.12534e-06
1.11869e-06
6.50445e-07
4.44955e-07
3.33881e-07
2.66377e-07
2.20062e-07
1.82143e-07
1.49502e-07
1.5255e-07
2.21762e-07
2.27495e-07
2.5682e-07
2.8599e-07
3.25735e-07
3.95778e-07
5.32427e-07
8.39836e-07
1.62521e-06
3.5642e-06
3.89162e-06
1.72368e-06
7.88216e-07
4.66315e-07
3.28011e-07
2.60544e-07
2.20187e-07
1.89374e-07
1.6061e-07
1.43198e-07
3.23869e-07
2.93236e-07
3.20216e-07
3.5191e-07
3.87762e-07
4.46203e-07
5.78406e-07
9.57209e-07
2.1721e-06
5.34853e-06
6.03905e-06
2.46502e-06
9.60601e-07
5.03691e-07
3.4807e-07
2.85137e-07
2.53721e-07
2.28351e-07
2.01692e-07
1.89657e-07
7.55474e-07
5.76924e-07
4.92728e-07
4.81458e-07
5.06524e-07
5.73498e-07
7.2555e-07
1.15672e-06
2.6519e-06
6.66752e-06
7.98617e-06
3.17272e-06
1.14359e-06
5.69167e-07
3.86187e-07
3.14465e-07
2.87963e-07
2.81036e-07
2.93258e-07
3.45313e-07
1.33198e-06
1.14051e-06
9.44466e-07
8.76535e-07
9.289e-07
1.05816e-06
1.27412e-06
1.74526e-06
3.23208e-06
7.19217e-06
8.83517e-06
3.86972e-06
1.52885e-06
8.46913e-07
6.09276e-07
4.93235e-07
4.46294e-07
4.7277e-07
6.10835e-07
8.97882e-07
1.95416e-06
1.841e-06
1.90063e-06
2.05521e-06
2.41083e-06
2.83263e-06
3.19676e-06
3.53357e-06
4.47409e-06
7.45492e-06
8.88844e-06
4.84755e-06
3.02291e-06
2.42702e-06
1.98956e-06
1.537e-06
1.19033e-06
1.11388e-06
1.36805e-06
1.55305e-06
2.67951e-06
3.0838e-06
4.38835e-06
6.11035e-06
7.77732e-06
9.37448e-06
1.03746e-05
1.06203e-05
1.10214e-05
1.34164e-05
1.53273e-05
1.224e-05
1.08423e-05
1.06133e-05
9.72415e-06
7.61643e-06
5.33109e-06
3.77281e-06
2.64985e-06
2.33077e-06
3.47332e-06
5.17983e-06
7.10504e-06
9.27118e-06
1.17977e-05
1.47754e-05
1.83274e-05
2.26319e-05
2.79108e-05
3.41127e-05
3.78056e-05
3.1282e-05
2.51698e-05
2.01742e-05
1.60507e-05
1.25531e-05
9.6242e-06
7.22086e-06
5.16934e-06
3.39408e-06
1.06302e-07
1.6596e-07
2.19588e-07
2.74318e-07
3.41776e-07
4.36396e-07
5.61442e-07
7.04395e-07
8.11813e-07
9.69514e-07
9.34394e-07
8.78781e-07
7.77426e-07
6.13383e-07
4.68373e-07
3.6428e-07
2.93711e-07
2.3239e-07
1.69523e-07
1.03299e-07
1.50666e-07
1.57927e-07
1.99057e-07
2.54314e-07
3.34223e-07
4.56228e-07
6.42014e-07
8.94052e-07
1.23604e-06
2.91183e-06
3.06379e-06
1.1519e-06
7.38978e-07
5.2559e-07
3.93619e-07
3.08097e-07
2.488e-07
2.02708e-07
1.61593e-07
1.42254e-07
1.98857e-07
1.80268e-07
2.19884e-07
2.76846e-07
3.62974e-07
4.9803e-07
7.20704e-07
1.15284e-06
2.46475e-06
8.22937e-06
1.01848e-05
2.75185e-06
1.02664e-06
5.60242e-07
3.75671e-07
2.87353e-07
2.33393e-07
1.90551e-07
1.53822e-07
1.52373e-07
2.49848e-07
2.24303e-07
2.58519e-07
3.11654e-07
3.92604e-07
5.30713e-07
8.14391e-07
1.62521e-06
4.58372e-06
1.46781e-05
1.87146e-05
5.57768e-06
1.64153e-06
6.70271e-07
3.85681e-07
2.83199e-07
2.29446e-07
1.89123e-07
1.50477e-07
1.44302e-07
3.66048e-07
3.21553e-07
3.45841e-07
3.93989e-07
4.70168e-07
6.08519e-07
9.48443e-07
2.1721e-06
7.07176e-06
2.108e-05
2.72519e-05
9.0098e-06
2.42359e-06
8.06018e-07
4.17734e-07
3.02578e-07
2.50512e-07
2.15906e-07
1.78184e-07
1.5015e-07
8.01483e-07
6.0294e-07
5.27458e-07
5.4045e-07
6.16371e-07
7.74085e-07
1.1615e-06
2.6519e-06
8.94294e-06
2.55724e-05
3.36194e-05
1.20944e-05
3.03659e-06
9.09576e-07
4.69441e-07
3.4048e-07
2.84065e-07
2.60407e-07
2.68233e-07
3.42467e-07
1.37867e-06
1.1355e-06
9.76328e-07
9.46227e-07
1.03661e-06
1.24769e-06
1.70155e-06
3.23208e-06
9.61558e-06
2.6458e-05
3.53507e-05
1.3757e-05
3.56138e-06
1.1581e-06
6.55297e-07
4.88606e-07
4.22131e-07
4.38048e-07
5.8126e-07
8.98716e-07
2.0141e-06
1.84446e-06
1.91184e-06
2.11993e-06
2.50491e-06
2.93871e-06
3.37765e-06
4.47409e-06
9.74195e-06
2.44297e-05
3.23531e-05
1.39907e-05
4.63296e-06
2.49726e-06
1.89608e-06
1.46349e-06
1.1298e-06
1.07207e-06
1.32361e-06
1.57817e-06
2.77791e-06
3.16418e-06
4.43901e-06
6.10994e-06
7.74144e-06
9.09558e-06
9.97239e-06
1.10214e-05
1.46558e-05
2.38323e-05
2.91314e-05
1.89783e-05
1.25323e-05
1.04639e-05
9.42133e-06
7.62015e-06
5.31396e-06
3.72491e-06
2.67466e-06
2.4092e-06
3.67528e-06
5.56231e-06
7.71405e-06
1.01927e-05
1.31708e-05
1.68441e-05
2.15609e-05
2.79109e-05
3.6808e-05
4.85186e-05
5.43343e-05
4.24146e-05
3.17192e-05
2.4034e-05
1.84221e-05
1.40693e-05
1.05976e-05
7.84767e-06
5.55412e-06
3.59461e-06
1.01587e-07
1.65613e-07
2.28154e-07
2.96481e-07
3.84356e-07
5.09206e-07
6.79429e-07
8.47151e-07
9.69516e-07
1.00294e-06
9.27684e-07
8.95865e-07
7.78287e-07
5.93075e-07
4.48753e-07
3.46595e-07
2.74477e-07
2.15758e-07
1.59393e-07
1.00328e-07
1.49325e-07
1.70661e-07
2.19458e-07
2.81722e-07
3.70278e-07
5.03842e-07
7.17969e-07
1.09365e-06
2.91183e-06
4.27831e-06
4.69989e-06
3.55214e-06
9.88069e-07
5.53694e-07
3.86219e-07
2.97247e-07
2.40467e-07
1.955e-07
1.5497e-07
1.30942e-07
2.08298e-07
1.94147e-07
2.39967e-07
3.08503e-07
4.15359e-07
5.85973e-07
9.37209e-07
2.02514e-06
8.22937e-06
8.5593e-06
9.88712e-06
1.02446e-05
1.96863e-06
6.59132e-07
3.79502e-07
2.83772e-07
2.31007e-07
1.88731e-07
1.51161e-07
1.44559e-07
2.82681e-07
2.46342e-07
2.83441e-07
3.54318e-07
4.72841e-07
6.936e-07
1.27322e-06
3.56421e-06
1.46781e-05
1.43975e-05
1.67347e-05
1.83477e-05
3.67517e-06
8.94028e-07
3.97876e-07
2.76108e-07
2.21303e-07
1.80423e-07
1.43358e-07
1.41649e-07
4.2751e-07
3.66293e-07
3.89241e-07
4.61974e-07
5.94091e-07
8.54791e-07
1.66268e-06
5.34854e-06
2.108e-05
2.17035e-05
2.499e-05
2.71588e-05
5.9223e-06
1.19263e-06
4.31951e-07
2.82767e-07
2.25821e-07
1.89338e-07
1.59903e-07
1.48746e-07
8.27576e-07
6.32748e-07
5.89299e-07
6.46398e-07
7.95848e-07
1.09816e-06
2.05632e-06
6.66752e-06
2.55724e-05
2.95416e-05
3.36589e-05
3.49791e-05
8.111e-06
1.49893e-06
5.08524e-07
3.33111e-07
2.69078e-07
2.41352e-07
2.50233e-07
3.46343e-07
1.37138e-06
1.10097e-06
9.984e-07
1.04243e-06
1.22673e-06
1.57474e-06
2.60383e-06
7.19218e-06
2.6458e-05
3.57368e-05
4.05823e-05
3.94052e-05
9.44581e-06
1.87343e-06
7.13631e-07
4.90337e-07
4.04239e-07
4.15606e-07
5.64205e-07
8.75865e-07
1.98395e-06
1.76374e-06
1.82757e-06
2.03669e-06
2.46214e-06
2.98562e-06
3.81584e-06
7.45494e-06
2.44298e-05
3.84991e-05
4.37152e-05
3.86141e-05
1.0428e-05
2.91996e-06
1.74253e-06
1.30658e-06
1.02084e-06
1.00074e-06
1.22014e-06
1.53789e-06
2.749e-06
3.05594e-06
4.21442e-06
5.82939e-06
7.29919e-06
8.53589e-06
9.9338e-06
1.34164e-05
2.38324e-05
3.86897e-05
4.39673e-05
3.45401e-05
1.75276e-05
1.10724e-05
8.73851e-06
6.99211e-06
4.82584e-06
3.33771e-06
2.53135e-06
2.36926e-06
3.75565e-06
5.76395e-06
8.08805e-06
1.08348e-05
1.42324e-05
1.86631e-05
2.48394e-05
3.41127e-05
4.85186e-05
6.63687e-05
7.04963e-05
5.6804e-05
3.94025e-05
2.78409e-05
2.0344e-05
1.50899e-05
1.11326e-05
8.14592e-06
5.6993e-06
3.63429e-06
9.88857e-08
1.65694e-07
2.34286e-07
3.10371e-07
4.05396e-07
5.32075e-07
6.94429e-07
8.61801e-07
9.34394e-07
9.27684e-07
7.81426e-07
7.17084e-07
6.05037e-07
4.87204e-07
3.82195e-07
3.05427e-07
2.48088e-07
1.9866e-07
1.4989e-07
9.56758e-08
1.52249e-07
1.85391e-07
2.4042e-07
3.04237e-07
3.85871e-07
4.99126e-07
6.81458e-07
1.0317e-06
3.0638e-06
4.6999e-06
4.49576e-06
3.86391e-06
8.98399e-07
4.66062e-07
3.35637e-07
2.67125e-07
2.21975e-07
1.8385e-07
1.46171e-07
1.17038e-07
2.22968e-07
2.11273e-07
2.58709e-07
3.25596e-07
4.22078e-07
5.70659e-07
9.05758e-07
2.12534e-06
1.01848e-05
9.88712e-06
8.13658e-06
1.30525e-05
1.98151e-06
5.78549e-07
3.35199e-07
2.58379e-07
2.14991e-07
1.77844e-07
1.42392e-07
1.31005e-07
3.17336e-07
2.76686e-07
3.15105e-07
3.86281e-07
4.9851e-07
6.99106e-07
1.2781e-06
3.89163e-06
1.87147e-05
1.67346e-05
1.20547e-05
2.57774e-05
3.99768e-06
8.0216e-07
3.45135e-07
2.4662e-07
2.02396e-07
1.67358e-07
1.35096e-07
1.34623e-07
4.81924e-07
4.13073e-07
4.43779e-07
5.28386e-07
6.66127e-07
9.17613e-07
1.75651e-06
6.03908e-06
2.7252e-05
2.49899e-05
1.6172e-05
4.02135e-05
6.76676e-06
1.06853e-06
3.6057e-07
2.44973e-07
2.02379e-07
1.74073e-07
1.53251e-07
1.56123e-07
8.43849e-07
6.65201e-07
6.60108e-07
7.55958e-07
9.32631e-07
1.24078e-06
2.28905e-06
7.98621e-06
3.36196e-05
3.36588e-05
2.01542e-05
5.27966e-05
9.51386e-06
1.3361e-06
4.16126e-07
2.88854e-07
2.467e-07
2.32787e-07
2.5472e-07
3.53633e-07
1.35351e-06
1.07679e-06
1.03322e-06
1.14753e-06
1.38953e-06
1.76597e-06
2.92188e-06
8.83522e-06
3.53509e-05
4.05822e-05
2.35966e-05
5.90435e-05
1.16653e-05
1.78834e-06
6.24526e-07
4.63072e-07
4.05409e-07
4.26001e-07
5.61642e-07
8.56751e-07
1.9551e-06
1.69863e-06
1.76884e-06
1.99129e-06
2.43568e-06
2.971e-06
3.96222e-06
8.88853e-06
3.23533e-05
4.37151e-05
2.58848e-05
5.50038e-05
1.32377e-05
2.82291e-06
1.55717e-06
1.17692e-06
9.43326e-07
9.60541e-07
1.15373e-06
1.50003e-06
2.73407e-06
2.97155e-06
4.06226e-06
5.75983e-06
7.2677e-06
8.60194e-06
1.04445e-05
1.53274e-05
2.91315e-05
4.39672e-05
2.8874e-05
4.36275e-05
2.06285e-05
1.14762e-05
8.43265e-06
6.60029e-06
4.51388e-06
3.01479e-06
2.40706e-06
2.32067e-06
3.83845e-06
5.9327e-06
8.37619e-06
1.13047e-05
1.49984e-05
1.99257e-05
2.69814e-05
3.78057e-05
5.43344e-05
7.04963e-05
5.16538e-05
5.76813e-05
4.09769e-05
2.86e-05
2.06798e-05
1.52334e-05
1.11673e-05
8.15821e-06
5.69006e-06
3.61105e-06
1.041e-07
1.75745e-07
2.48871e-07
3.26217e-07
4.1444e-07
5.22245e-07
6.54176e-07
7.92602e-07
8.7878e-07
8.95864e-07
7.17087e-07
3.80629e-07
3.20493e-07
3.22869e-07
2.87137e-07
2.48016e-07
2.10695e-07
1.73657e-07
1.34047e-07
8.76522e-08
1.61118e-07
1.89681e-07
2.40903e-07
2.94678e-07
3.56114e-07
4.37464e-07
5.61389e-07
7.6946e-07
1.15191e-06
3.55214e-06
3.86392e-06
8.72909e-07
4.5105e-07
3.24065e-07
2.65008e-07
2.26667e-07
1.95597e-07
1.6563e-07
1.32934e-07
1.03302e-07
2.37469e-07
2.19659e-07
2.59145e-07
3.08158e-07
3.69427e-07
4.59251e-07
6.42211e-07
1.11869e-06
2.75185e-06
1.02447e-05
1.30525e-05
2.69969e-06
7.71339e-07
3.77827e-07
2.71422e-07
2.25014e-07
1.92658e-07
1.61752e-07
1.30123e-07
1.18589e-07
3.40649e-07
2.981e-07
3.27995e-07
3.73467e-07
4.32497e-07
5.30908e-07
7.9119e-07
1.72368e-06
5.5777e-06
1.83478e-05
2.57774e-05
6.23691e-06
1.33845e-06
4.39085e-07
2.66731e-07
2.14256e-07
1.83232e-07
1.55122e-07
1.27332e-07
1.26063e-07
5.18392e-07
4.48367e-07
4.7204e-07
5.21804e-07
5.81002e-07
6.79032e-07
1.0013e-06
2.46503e-06
9.00985e-06
2.71589e-05
4.02135e-05
1.11798e-05
2.05988e-06
4.92865e-07
2.63164e-07
2.11151e-07
1.85503e-07
1.65699e-07
1.49839e-07
1.54505e-07
8.76737e-07
7.02323e-07
6.98785e-07
7.56962e-07
8.27885e-07
9.27025e-07
1.27996e-06
3.17274e-06
1.20945e-05
3.49793e-05
5.27965e-05
1.62687e-05
2.72743e-06
5.53217e-07
2.93249e-07
2.45534e-07
2.2838e-07
2.30516e-07
2.66383e-07
3.77731e-07
1.38654e-06
1.10027e-06
1.06783e-06
1.15681e-06
1.2729e-06
1.40061e-06
1.77118e-06
3.86974e-06
1.37571e-05
3.94055e-05
5.90435e-05
2.02933e-05
3.55877e-06
7.8932e-07
4.78361e-07
4.20357e-07
4.06198e-07
4.55788e-07
6.02268e-07
8.85385e-07
2.008e-06
1.74294e-06
1.83317e-06
2.07399e-06
2.38324e-06
2.72022e-06
3.15714e-06
4.84758e-06
1.39908e-05
3.86143e-05
5.50037e-05
2.11879e-05
4.58109e-06
1.98938e-06
1.53569e-06
1.24591e-06
1.07326e-06
1.04814e-06
1.19432e-06
1.53687e-06
2.81778e-06
3.10286e-06
4.30801e-06
6.00112e-06
7.65538e-06
8.91172e-06
1.00268e-05
1.22401e-05
1.89785e-05
3.45402e-05
4.36275e-05
2.53979e-05
1.40474e-05
1.04181e-05
9.0814e-06
7.33001e-06
4.93488e-06
3.34062e-06
2.50153e-06
2.37041e-06
3.85707e-06
5.8622e-06
8.15387e-06
1.08253e-05
1.40669e-05
1.81504e-05
2.36014e-05
3.12821e-05
4.24147e-05
5.68041e-05
5.76813e-05
4.54591e-05
3.33479e-05
2.4924e-05
1.90063e-05
1.44915e-05
1.08886e-05
8.03751e-06
5.66198e-06
3.64422e-06
1.08765e-07
1.80263e-07
2.51741e-07
3.24501e-07
4.03337e-07
4.93771e-07
6.00586e-07
7.12357e-07
7.77426e-07
7.78287e-07
6.05041e-07
3.20495e-07
2.31673e-07
2.17982e-07
2.11208e-07
1.93371e-07
1.71215e-07
1.44982e-07
1.14104e-07
7.67666e-08
1.59534e-07
1.7453e-07
2.16498e-07
2.59054e-07
3.06252e-07
3.67341e-07
4.59256e-07
5.86477e-07
7.38977e-07
9.88068e-07
8.98401e-07
4.51051e-07
2.89812e-07
2.4061e-07
2.11314e-07
1.87964e-07
1.6674e-07
1.43314e-07
1.15893e-07
9.3197e-08
2.2611e-07
2.03916e-07
2.32527e-07
2.6398e-07
3.0155e-07
3.56105e-07
4.56302e-07
6.50444e-07
1.02664e-06
1.96863e-06
1.98151e-06
7.71339e-07
3.86731e-07