/*--------------------------------*- C++ -*----------------------------------*\
| =========                 |                                                 |
| \\      /  F ield         | OpenFOAM: The Open Source CFD Toolbox           |
|  \\    /   O peration     | Version:  1.7.1                                 |
|   \\  /    A nd           | Web:      www.OpenFOAM.com                      |
|    \\/     M anipulation  |                                                 |
\*---------------------------------------------------------------------------*/
FoamFile
{
    version     2.0;
    format      ascii;
    class       volScalarField;
    location    "600";
    object      k;
}
// * * * * * * * * * * * * * * * * * * * * * * * * * * * * * * * * * * * * * //

dimensions      [0 2 -2 0 0 0 0];

internalField   nonuniform List<scalar> 
4000
(
1.33956e-05
1.40708e-05
1.43819e-05
1.4727e-05
1.54592e-05
1.61325e-05
1.65328e-05
1.66023e-05
1.63284e-05
1.58835e-05
1.5646e-05
1.62021e-05
1.66293e-05
1.66036e-05
1.64247e-05
1.61751e-05
1.58342e-05
1.53315e-05
1.46418e-05
1.37691e-05
1.65142e-05
1.75325e-05
1.83433e-05
1.91886e-05
1.96717e-05
2.00179e-05
2.04468e-05
2.06666e-05
2.06607e-05
2.06248e-05
2.09738e-05
2.17722e-05
2.15307e-05
2.05229e-05
1.93943e-05
1.84519e-05
1.7643e-05
1.71031e-05
1.63713e-05
1.57907e-05
2.35066e-05
2.36919e-05
2.35713e-05
2.33794e-05
2.3114e-05
2.32307e-05
2.38058e-05
2.42171e-05
2.49119e-05
2.58086e-05
2.70804e-05
2.81856e-05
2.71354e-05
2.47096e-05
2.22245e-05
2.04603e-05
1.9341e-05
2.00592e-05
2.02693e-05
2.04599e-05
3.79633e-05
3.55838e-05
3.36834e-05
3.17738e-05
2.97867e-05
2.83093e-05
2.56447e-05
2.67044e-05
2.89892e-05
3.1572e-05
3.41291e-05
3.56755e-05
3.36015e-05
2.9131e-05
2.47675e-05
2.38195e-05
2.51139e-05
2.66027e-05
2.8652e-05
3.10751e-05
5.3723e-05
5.09717e-05
4.63848e-05
4.24184e-05
3.92104e-05
3.65084e-05
3.40053e-05
3.42321e-05
3.72794e-05
4.14189e-05
4.4834e-05
4.69234e-05
4.43116e-05
3.90014e-05
3.44465e-05
3.26403e-05
3.37736e-05
3.66634e-05
4.17772e-05
4.81595e-05
5.94878e-05
5.96335e-05
5.84855e-05
5.62798e-05
5.45823e-05
5.47549e-05
5.70926e-05
6.00261e-05
6.255e-05
6.39692e-05
6.47647e-05
6.63306e-05
6.51117e-05
6.11696e-05
5.6628e-05
5.28494e-05
5.10096e-05
5.19861e-05
5.40236e-05
5.56227e-05
6.35712e-05
6.64773e-05
6.90541e-05
7.20364e-05
7.56184e-05
7.97834e-05
8.40291e-05
8.76178e-05
8.97078e-05
8.94033e-05
8.85652e-05
8.9954e-05
8.9592e-05
8.64362e-05
8.14959e-05
7.59554e-05
7.07854e-05
6.66397e-05
6.3727e-05
6.08854e-05
6.71623e-05
7.33416e-05
8.0127e-05
8.72406e-05
9.45475e-05
0.000101715
0.000108184
0.000113156
0.000115493
0.000114346
0.000113194
0.000115225
0.000114702
0.000110848
0.000104571
9.68893e-05
8.86381e-05
8.04679e-05
7.27489e-05
6.53619e-05
7.12893e-05
8.09351e-05
9.15726e-05
0.000102275
0.000112996
0.000123339
0.000132617
0.000139705
0.000143145
0.000142177
0.00014166
0.00014456
0.00014309
0.000137137
0.000128072
0.000117237
0.000105597
9.37524e-05
8.17488e-05
6.99733e-05
7.66401e-05
9.04326e-05
0.000104941
0.000118773
0.000132218
0.000145017
0.000156643
0.000166235
0.000172664
0.000175205
0.000177818
0.000178436
0.000173544
0.000164582
0.000152814
0.000139199
0.000124472
0.000109125
9.28584e-05
7.61231e-05
1.40709e-05
1.61436e-05
1.72542e-05
1.79649e-05
1.86597e-05
1.98169e-05
2.08471e-05
2.16168e-05
2.20113e-05
2.20922e-05
2.22077e-05
2.30756e-05
2.33315e-05
2.26175e-05
2.15939e-05
2.04754e-05
1.93132e-05
1.81409e-05
1.68109e-05
1.51141e-05
1.75325e-05
2.34018e-05
2.72707e-05
3.00776e-05
3.12383e-05
3.13716e-05
3.26059e-05
3.42101e-05
3.58586e-05
3.73193e-05
3.83323e-05
3.78593e-05
3.57057e-05
3.28853e-05
3.02988e-05
2.81469e-05
2.71078e-05
2.66735e-05
2.32183e-05
1.73323e-05
2.36919e-05
2.76751e-05
3.1237e-05
3.47861e-05
3.75256e-05
3.90794e-05
3.8651e-05
3.9085e-05
4.03502e-05
4.18409e-05
4.25875e-05
4.17435e-05
3.90854e-05
3.57391e-05
3.32341e-05
3.19783e-05
3.09919e-05
2.80087e-05
2.44697e-05
2.10679e-05
3.55838e-05
4.06836e-05
4.08973e-05
4.05253e-05
4.04004e-05
4.1143e-05
4.21482e-05
4.23111e-05
4.26461e-05
4.48167e-05
4.68693e-05
4.73959e-05
4.43324e-05
3.94285e-05
3.54826e-05
3.33554e-05
3.25399e-05
3.30049e-05
3.38642e-05
3.08517e-05
5.09718e-05
5.96594e-05
5.68263e-05
5.23626e-05
4.85319e-05
4.57347e-05
4.37918e-05
4.3538e-05
4.70473e-05
5.16268e-05
5.55147e-05
5.76163e-05
5.38576e-05
4.66062e-05
4.04148e-05
3.8919e-05
4.09166e-05
4.54687e-05
5.14323e-05
4.79139e-05
5.96335e-05
6.94605e-05
7.16495e-05
6.91643e-05
6.57116e-05
6.34052e-05
6.26303e-05
6.44392e-05
6.67463e-05
6.93584e-05
7.2125e-05
7.48823e-05
7.22734e-05
6.65691e-05
6.14723e-05
5.81985e-05
5.84079e-05
6.11517e-05
6.24809e-05
5.62918e-05
6.64773e-05
7.63215e-05
8.34082e-05
8.96795e-05
9.53763e-05
0.00010017
0.000104591
0.000106683
0.000105998
0.000102954
0.000100942
0.000102658
0.000102525
9.94059e-05
9.44456e-05
8.82793e-05
8.16752e-05
7.55454e-05
7.00312e-05
6.27132e-05
7.33416e-05
8.50174e-05
9.70379e-05
0.000109974
0.000123578
0.000136043
0.00014571
0.000151071
0.000150324
0.000144047
0.000139509
0.000142404
0.000143501
0.000139117
0.000130087
0.000117859
0.000104187
9.09102e-05
7.95393e-05
6.92293e-05
8.09351e-05
9.77181e-05
0.000115451
0.000133659
0.000152783
0.000171614
0.000188219
0.000199551
0.000202261
0.000195753
0.000191504
0.000198186
0.000197914
0.000188255
0.000171808
0.000152095
0.000131864
0.000112566
9.45734e-05
7.77939e-05
9.04326e-05
0.000108253
0.000127613
0.000146827
0.000166063
0.000184816
0.000202253
0.000217079
0.000227712
0.000233224
0.000237816
0.000235979
0.000227123
0.000212856
0.000194904
0.000174715
0.000153463
0.000131978
0.00011018
8.90562e-05
1.43819e-05
1.72543e-05
1.89984e-05
2.01932e-05
2.11754e-05
2.23538e-05
2.38375e-05
2.53432e-05
2.65451e-05
2.73986e-05
2.80541e-05
2.91675e-05
2.9181e-05
2.78427e-05
2.60861e-05
2.42034e-05
2.22832e-05
2.05609e-05
1.86063e-05
1.61106e-05
1.83433e-05
2.72707e-05
3.12796e-05
3.44315e-05
3.70285e-05
3.94073e-05
4.17693e-05
4.45169e-05
4.76369e-05
5.0723e-05
5.2798e-05
5.1567e-05
4.76734e-05
4.32145e-05
3.9336e-05
3.62013e-05
3.43106e-05
3.15455e-05
2.58007e-05
1.8027e-05
2.35713e-05
3.12371e-05
3.60767e-05
4.00484e-05
4.33102e-05
4.58903e-05
4.75685e-05
4.97439e-05
5.30785e-05
5.6294e-05
5.75703e-05
5.5237e-05
5.02379e-05
4.49882e-05
4.12246e-05
3.90369e-05
3.63217e-05
3.1643e-05
2.62694e-05
2.10392e-05
3.36834e-05
4.08973e-05
4.38615e-05
4.54159e-05
4.67768e-05
4.86455e-05
5.06592e-05
5.18778e-05
5.469e-05
5.87038e-05
6.14131e-05
6.02586e-05
5.43698e-05
4.71918e-05
4.19451e-05
3.8846e-05
3.67815e-05
3.56653e-05
3.44107e-05
2.95874e-05
4.63848e-05
5.68263e-05
5.7986e-05
5.62152e-05
5.40763e-05
5.25504e-05
5.19683e-05
5.33641e-05
5.8924e-05
6.53628e-05
7.09123e-05
7.13805e-05
6.35924e-05
5.30864e-05
4.51801e-05
4.28496e-05
4.41987e-05
4.76405e-05
5.10143e-05
4.53055e-05
5.84855e-05
7.16495e-05
7.43316e-05
7.26382e-05
6.99997e-05
6.78314e-05
6.67573e-05
6.77636e-05
7.25514e-05
7.98749e-05
8.70664e-05
8.87963e-05
7.96298e-05
6.81947e-05
6.07002e-05
5.78401e-05
5.88899e-05
6.24135e-05
6.41979e-05
5.6101e-05
6.90541e-05
8.34082e-05
9.10665e-05
9.57299e-05
9.82492e-05
0.000100611
0.000104131
0.000109149
0.000112255
0.000114261
0.000117063
0.000118326
0.000110873
0.000100945
9.24486e-05
8.59002e-05
8.18203e-05
7.8225e-05
7.3894e-05
6.48926e-05
8.0127e-05
9.70379e-05
0.000112304
0.00012798
0.000144063
0.000159127
0.00017178
0.000179787
0.00018068
0.000175
0.000170879
0.00017264
0.000169604
0.00015989
0.00014592
0.000129997
0.0001141
9.99033e-05
8.75831e-05
7.51488e-05
9.15726e-05
0.000115451
0.000145249
0.000177953
0.000212307
0.000245836
0.000275188
0.000294213
0.000298547
0.000291703
0.000288323
0.0002934
0.000290421
0.000273025
0.000243527
0.000207675
0.000171162
0.000137864
0.000109343
8.74949e-05
0.000104941
0.000127613
0.000151836
0.000176208
0.000200853
0.000225153
0.000248114
0.000268142
0.000283365
0.000292512
0.000299494
0.000294225
0.000280721
0.000260979
0.000237044
0.000210686
0.000183425
0.000156324
0.000129462
0.000103718
1.4727e-05
1.79649e-05
2.01932e-05
2.1817e-05
2.32725e-05
2.47875e-05
2.65679e-05
2.85532e-05
3.07803e-05
3.26441e-05
3.38813e-05
3.49747e-05
3.45811e-05
3.2581e-05
3.01202e-05
2.75106e-05
2.49958e-05
2.26708e-05
2.00577e-05
1.66654e-05
1.91886e-05
3.00776e-05
3.44315e-05
3.78095e-05
4.13514e-05
4.5503e-05
5.00988e-05
5.4912e-05
5.972e-05
6.43595e-05
6.7016e-05
6.44403e-05
5.85817e-05
5.25665e-05
4.75903e-05
4.35586e-05
3.99428e-05
3.50064e-05
2.78637e-05
1.84869e-05
2.33795e-05
3.47861e-05
4.00484e-05
4.37884e-05
4.71927e-05
5.08005e-05
5.50514e-05
6.04972e-05
6.69124e-05
7.25203e-05
7.39879e-05
6.91074e-05
6.09409e-05
5.34476e-05
4.81262e-05
4.44403e-05
4.02981e-05
3.43483e-05
2.75919e-05
2.06628e-05
3.17738e-05
4.05253e-05
4.54159e-05
4.84685e-05
5.10259e-05
5.36864e-05
5.66858e-05
6.0832e-05
6.82749e-05
7.60101e-05
7.92285e-05
7.42687e-05
6.39312e-05
5.3879e-05
4.70027e-05
4.26769e-05
3.93084e-05
3.63976e-05
3.31894e-05
2.77046e-05
4.24184e-05
5.23626e-05
5.62152e-05
5.7117e-05
5.70604e-05
5.71745e-05
5.84052e-05
6.27367e-05
7.25988e-05
8.4226e-05
9.16685e-05
8.67897e-05
7.25652e-05
5.82711e-05
4.85961e-05
4.48381e-05
4.46724e-05
4.59777e-05
4.65004e-05
4.02789e-05
5.62798e-05
6.91643e-05
7.26382e-05
7.28026e-05
7.18508e-05
7.11386e-05
7.16611e-05
7.49486e-05
8.46012e-05
9.88022e-05
0.00011039
0.000106033
8.77412e-05
6.99496e-05
5.98855e-05
5.65924e-05
5.72938e-05
5.98003e-05
6.12623e-05
5.38813e-05
7.20365e-05
8.96795e-05
9.57299e-05
9.80667e-05
0.000100598
0.000103891
0.000108827
0.000116101
0.000124229
0.000134018
0.000142884
0.000139172
0.000120756
0.000101693
8.92575e-05
8.18072e-05
7.87133e-05
7.84681e-05
7.60759e-05
6.59136e-05
8.72407e-05
0.000109974
0.00012798
0.000145235
0.00016129
0.000177875
0.000194849
0.000209083
0.000214561
0.000209427
0.000205163
0.000205528
0.000197574
0.000181312
0.000159876
0.000139353
0.000122517
0.000107977
9.48995e-05
8.05572e-05
0.000102275
0.000133659
0.000177953
0.000231284
0.000287054
0.000337621
0.000378673
0.000403823
0.000405213
0.000390294
0.00038368
0.000392359
0.00039409
0.000374446
0.000333572
0.000279126
0.000220383
0.000165065
0.000122676
9.70123e-05
0.000118773
0.000146827
0.000176208
0.000205878
0.000235924
0.000265774
0.000294524
0.000320425
0.000341479
0.000355771
0.000366072
0.000355702
0.000336007
0.00030981
0.000279398
0.00024667
0.000213357
0.000180541
0.000148437
0.0001176
1.54593e-05
1.86597e-05
2.11754e-05
2.32726e-05
2.51117e-05
2.71456e-05
2.9662e-05
3.22125e-05
3.55916e-05
3.87993e-05
4.04908e-05
4.10355e-05
3.99824e-05
3.71419e-05
3.38842e-05
3.0504e-05
2.74075e-05
2.44545e-05
2.1116e-05
1.687e-05
1.96717e-05
3.12384e-05
3.70286e-05
4.13515e-05
4.58802e-05
5.14854e-05
5.84504e-05
6.66081e-05
7.42332e-05
8.03747e-05
8.23881e-05
7.74104e-05
6.94443e-05
6.18438e-05
5.57183e-05
5.05856e-05
4.5043e-05
3.822e-05
3.00731e-05
1.89829e-05
2.3114e-05
3.75257e-05
4.33103e-05
4.71927e-05
5.09754e-05
5.5904e-05
6.31558e-05
7.30148e-05
8.39336e-05
9.25208e-05
9.28626e-05
8.37333e-05
7.20535e-05
6.19881e-05
5.49312e-05
4.94874e-05
4.4036e-05
3.73726e-05
2.94792e-05
2.01345e-05
2.97868e-05
4.04005e-05
4.67768e-05
5.10259e-05
5.43595e-05
5.76513e-05
6.25637e-05
7.14492e-05
8.51207e-05
9.8072e-05
0.000100623
8.92147e-05
7.34338e-05
6.03644e-05
5.18223e-05
4.63375e-05
4.16534e-05
3.70622e-05
3.20177e-05
2.55509e-05
3.92104e-05
4.85319e-05
5.40763e-05
5.70604e-05
5.88633e-05
6.06639e-05
6.42463e-05
7.29568e-05
8.94943e-05
0.000108583
0.000116374
0.000102145
8.05753e-05
6.28098e-05
5.16011e-05
4.60934e-05
4.39562e-05
4.2962e-05
4.113e-05
3.54719e-05
5.45824e-05
6.57117e-05
6.99998e-05
7.18508e-05
7.2799e-05
7.41077e-05
7.7316e-05
8.49574e-05
0.000102434
0.000125921
0.000139545
0.000122988
9.47652e-05
7.16632e-05
5.91725e-05
5.47712e-05
5.41927e-05
5.49528e-05
5.46358e-05
4.83124e-05
7.56184e-05
9.53764e-05
9.82492e-05
0.000100598
0.000104401
0.000110096
0.000118393
0.000130349
0.000144161
0.000163714
0.000176604
0.000159624
0.000129147
0.000103247
8.7847e-05
7.87952e-05
7.51208e-05
7.4713e-05
7.55756e-05
6.60947e-05
9.45475e-05
0.000123578
0.000144063
0.00016129
0.000180587
0.000202494
0.000224461
0.000242571
0.000251218
0.000249777
0.000245607
0.000235516
0.000220696
0.000200143
0.000173005
0.000146799
0.000126627
0.00011405
0.00010201
8.54963e-05
0.000112996
0.000152783
0.000212307
0.000287054
0.000357437
0.00041588
0.000460884
0.000486084
0.000482473
0.000460056
0.000452284
0.000465086
0.000472591
0.000455863
0.000411391
0.000346773
0.00027156
0.000193118
0.000135944
0.000106047
0.000132218
0.000166063
0.000200853
0.000235924
0.000271347
0.000307196
0.000342996
0.000376575
0.00040548
0.000427137
0.000442435
0.000423949
0.000395851
0.00036142
0.000322962
0.000283041
0.000243441
0.000204783
0.000167198
0.000130819
1.61325e-05
1.98169e-05
2.23539e-05
2.47876e-05
2.71456e-05
2.95455e-05
3.31757e-05
3.70101e-05
4.1794e-05
4.67473e-05
4.84935e-05
4.78507e-05
4.57436e-05
4.17468e-05
3.74554e-05
3.31901e-05
2.94919e-05
2.5916e-05
2.18685e-05
1.68261e-05
2.0018e-05
3.13717e-05
3.94074e-05
4.55031e-05
5.14854e-05
5.87589e-05
6.85238e-05
8.09371e-05
9.26698e-05
9.97611e-05
9.93351e-05
9.13777e-05
8.12799e-05
7.20374e-05
6.43185e-05
5.75388e-05
5.00632e-05
4.17384e-05
3.26618e-05
1.96239e-05
2.32308e-05
3.90794e-05
4.58903e-05
5.08006e-05
5.5904e-05
6.30178e-05
7.38661e-05
8.90866e-05
0.000105286
0.000116558
0.000114106
9.97382e-05
8.44926e-05
7.22554e-05
6.30929e-05
5.55397e-05
4.84369e-05
4.09816e-05
3.22964e-05
1.98168e-05
2.83094e-05
4.11431e-05
4.86455e-05
5.36864e-05
5.76514e-05
6.23849e-05
7.08597e-05
8.6048e-05
0.000107491
0.000127733
0.000127433
0.000106664
8.4652e-05
6.85126e-05
5.81424e-05
5.12024e-05
4.53127e-05
3.90322e-05
3.20459e-05
2.33847e-05
3.65084e-05
4.57348e-05
5.25505e-05
5.71745e-05
6.06639e-05
6.45232e-05
7.15211e-05
8.66217e-05
0.000112671
0.000142734
0.000148066
0.000119814
8.96866e-05
6.85422e-05
5.58196e-05
4.83532e-05
4.39174e-05
4.0637e-05
3.68247e-05
3.10562e-05
5.47549e-05
6.34053e-05
6.78315e-05
7.11386e-05
7.41077e-05
7.79875e-05
8.50867e-05
9.9584e-05
0.000128088
0.000164799
0.000176572
0.000141042
0.000101959
7.45223e-05
5.94479e-05
5.32393e-05
5.08001e-05
4.96515e-05
4.79103e-05
4.24525e-05
7.97835e-05
0.00010017
0.000100611
0.000103891
0.000110096
0.000119228
0.000132038
0.000149968
0.000173237
0.000205508
0.000218238
0.000179447
0.000136201
0.000105542
8.75255e-05
7.63251e-05
7.09996e-05
6.96806e-05
7.14648e-05
6.63701e-05
0.000101715
0.000136043
0.000159127
0.000177875
0.000202494
0.000229656
0.000255548
0.000275904
0.00028709
0.000293145
0.000287564
0.000261967
0.000239285
0.000214988
0.0001842
0.000153444
0.000128851
0.000115166
0.000108051
9.00973e-05
0.00012334
0.000171614
0.000245836
0.000337621
0.00041588
0.000481826
0.000531383
0.000553492
0.000540844
0.000514816
0.0005072
0.000513674
0.000525522
0.000514624
0.00046576
0.000392178
0.000307466
0.000217592
0.000148333
0.000114449
0.000145017
0.000184817
0.000225153
0.000265774
0.000307196
0.000350697
0.000394652
0.000437929
0.000478189
0.000512244
0.000535181
0.000502905
0.000461833
0.000416415
0.000368484
0.000319911
0.000273146
0.000228607
0.000185438
0.000143285
1.65328e-05
2.08472e-05
2.38376e-05
2.6568e-05
2.9662e-05
3.31758e-05
3.73453e-05
4.2622e-05
4.92844e-05
5.6546e-05
5.78194e-05
5.55538e-05
5.21048e-05
4.63227e-05
4.06465e-05
3.54217e-05
3.11489e-05
2.70329e-05
2.23749e-05
1.66126e-05
2.04468e-05
3.2606e-05
4.17694e-05
5.00989e-05
5.84505e-05
6.85239e-05
8.19547e-05
9.96003e-05
0.000115735
0.000123043
0.000118507
0.000107154
9.53355e-05
8.36118e-05
7.3308e-05
6.40985e-05
5.46847e-05
4.52957e-05
3.54819e-05
2.0206e-05
2.38059e-05
3.8651e-05
4.75685e-05
5.50515e-05
6.31559e-05
7.38661e-05
8.90669e-05
0.000110112
0.00013224
0.000150102
0.000144415
0.000121138
0.000100425
8.49756e-05
7.31547e-05
6.32645e-05
5.40949e-05
4.51631e-05
3.53725e-05
2.01546e-05
2.56448e-05
4.21482e-05
5.06592e-05
5.66858e-05
6.25638e-05
7.08597e-05
8.47852e-05
0.000107441
0.000140295
0.000178254
0.000174752
0.000134433
0.000101479
8.08056e-05
6.76002e-05
5.83236e-05
5.08816e-05
4.32468e-05
3.40219e-05
2.1313e-05
3.40053e-05
4.37919e-05
5.19683e-05
5.84052e-05
6.42463e-05
7.15211e-05
8.41457e-05
0.000108651
0.000151453
0.000209495
0.000211392
0.000151951
0.000105608
7.87898e-05
6.34982e-05
5.37872e-05
4.6499e-05
4.05009e-05
3.44288e-05
2.71525e-05
5.70926e-05
6.26304e-05
6.67573e-05
7.16611e-05
7.7316e-05
8.50867e-05
9.80947e-05
0.000123446
0.000171497
0.000241869
0.000251458
0.00017483
0.000115718
8.18577e-05
6.30216e-05
5.3642e-05
4.8653e-05
4.5474e-05
4.25063e-05
3.80403e-05
8.40292e-05
0.000104591
0.000104131
0.000108827
0.000118393
0.000132038
0.000150722
0.000177137
0.000219803
0.00028574
0.000297943
0.000213701
0.000147613
0.000110181
8.8566e-05
7.45732e-05
6.6918e-05
6.41751e-05
6.6498e-05
6.69419e-05
0.000108184
0.00014571
0.000171781
0.000194849
0.000224461
0.000255548
0.000283605
0.000305261
0.000324021
0.000353095
0.00035093
0.000292932
0.000252837
0.000223429
0.000190949
0.000157253
0.000129067
0.000113534
0.000111534
9.42166e-05
0.000132617
0.000188219
0.000275188
0.000378674
0.000460885
0.000531383
0.000580054
0.00059423
0.000580018
0.00057587
0.00057889
0.000555042
0.00055563
0.000553056
0.000508041
0.000425919
0.000333037
0.000235214
0.000158794
0.000121928
0.000156643
0.000202253
0.000248114
0.000294524
0.000342997
0.000394652
0.000449096
0.000506
0.00056424
0.000620405
0.000655563
0.00059954
0.00053745
0.000476062
0.000415913
0.00035743
0.000302425
0.000251523
0.000202641
0.000154694
1.66023e-05
2.16169e-05
2.53433e-05
2.85533e-05
3.22126e-05
3.70102e-05
4.2622e-05
4.93971e-05
5.71475e-05
6.52214e-05
6.66481e-05
6.30407e-05
5.83774e-05
5.02077e-05
4.29725e-05
3.6827e-05
3.21012e-05
2.76103e-05
2.25377e-05
1.62753e-05
2.06667e-05
3.42102e-05
4.4517e-05
5.49121e-05
6.66082e-05
8.09372e-05
9.96004e-05
0.000122181
0.000140725
0.000151668
0.000141095
0.000125219
0.000110056
9.51899e-05
8.15364e-05
6.91813e-05
5.80768e-05
4.80044e-05
3.76525e-05
2.03225e-05
2.42172e-05
3.9085e-05
4.9744e-05
6.04973e-05
7.30149e-05
8.90867e-05
0.000110112
0.000136695
0.000169658
0.000220219
0.000215234
0.000157319
0.000121183
9.93111e-05
8.34752e-05
7.09716e-05
6.02251e-05
4.97405e-05
3.83896e-05
2.0752e-05
2.67045e-05
4.23112e-05
5.18779e-05
6.08321e-05
7.14493e-05
8.60481e-05
0.000107441
0.000142212
0.000204158
0.000310719
0.000312208
0.000198459
0.000130717
9.82088e-05
7.94999e-05
6.69023e-05
5.69588e-05
4.77418e-05
3.68925e-05
1.98376e-05
3.42321e-05
4.3538e-05
5.33641e-05
6.27368e-05
7.29569e-05
8.66218e-05
0.000108651
0.00015105
0.000242238
0.000406379
0.000418389
0.000244436
0.000141873
9.74836e-05
7.5911e-05
6.28132e-05
5.29562e-05
4.35712e-05
3.42646e-05
2.38554e-05
6.00261e-05
6.44392e-05
6.77636e-05
7.49486e-05
8.49575e-05
9.95841e-05
0.000123446
0.000170195
0.000277957
0.000477645
0.000511145
0.000286939
0.000154298
9.89746e-05
7.28742e-05
5.79942e-05
4.90942e-05
4.32808e-05
3.89094e-05
3.55985e-05
8.76178e-05
0.000106683
0.000109149
0.000116102
0.000130349
0.000149968
0.000177137
0.000223592
0.00032531
0.000515734
0.000560132
0.000331875
0.000184317
0.000121797
9.20258e-05
7.4329e-05
6.36316e-05
5.92666e-05
6.21669e-05
6.75786e-05
0.000113156
0.000151071
0.000179787
0.000209084
0.000242571
0.000275904
0.000305261
0.000335263
0.000396871
0.000534808
0.000570742
0.00038433
0.000273736
0.00022568
0.000190849
0.000156242
0.00012625
0.000110138
0.000111495
9.74723e-05
0.000139705
0.000199551
0.000294213
0.000403823
0.000486084
0.000553492
0.00059423
0.0006078
0.00062923
0.000715052
0.000754986
0.000637968
0.000574871
0.000559268
0.000525249
0.000443996
0.000344018
0.000244866
0.000165294
0.000127818
0.000166235
0.000217079
0.000268143
0.000320425
0.000376576
0.000437929
0.000506
0.000582856
0.000670765
0.000767303
0.000821419
0.000723742
0.000626114
0.000540295
0.000463895
0.000393707
0.000329702
0.000272099
0.00021763
0.000164299
1.63284e-05
2.20114e-05
2.65452e-05
3.07804e-05
3.55917e-05
4.17941e-05
4.92846e-05
5.71476e-05
6.27795e-05
7.11104e-05
7.01232e-05
6.73645e-05
6.17888e-05
5.25544e-05
4.37266e-05
3.68692e-05
3.19267e-05
2.73e-05
2.212e-05
1.59028e-05
2.06607e-05
3.58587e-05
4.7637e-05
5.97201e-05
7.42333e-05
9.26699e-05
0.000115735
0.000140725
0.000164661
0.000253085
0.000251014
0.000147198
0.000121637
0.000102034
8.53496e-05
7.15758e-05
5.94963e-05
4.91172e-05
3.84212e-05
1.97631e-05
2.4912e-05
4.03503e-05
5.30786e-05
6.69125e-05
8.39338e-05
0.000105286
0.00013224
0.000169658
0.00024842
0.000492416
0.000533381
0.000243392
0.000146596
0.000109967
8.9705e-05
7.56939e-05
6.41653e-05
5.286e-05
4.03822e-05
2.07244e-05
2.89892e-05
4.26461e-05
5.469e-05
6.8275e-05
8.51208e-05
0.000107492
0.000140295
0.000204158
0.000364063
0.000735028
0.000816406
0.000378143
0.000184144
0.000115983
8.82976e-05
7.29872e-05
6.12874e-05
5.02189e-05
3.75019e-05
1.9994e-05
3.72794e-05
4.70473e-05
5.8924e-05
7.25988e-05
8.94944e-05
0.000112671
0.000151453
0.000242238
0.000486157
0.000958223
0.00107919
0.000522606
0.000227942
0.000123246
8.70304e-05
6.98631e-05
5.79547e-05
4.7456e-05
3.53112e-05
2.04607e-05
6.255e-05
6.67463e-05
7.25514e-05
8.46012e-05
0.000102434
0.000128088
0.000171497
0.000277957
0.000576714
0.00111604
0.0012753
0.000644114
0.000261895
0.000128865
8.63026e-05
6.59186e-05
5.24766e-05
4.29519e-05
3.70064e-05
3.55612e-05
8.97079e-05
0.000105998
0.000112255
0.000124229
0.000144161
0.000173237
0.000219803
0.00032531
0.000621395
0.00116742
0.00135028
0.000715186
0.000294543
0.000147105
9.87914e-05
7.53144e-05
6.15587e-05
5.564e-05
5.91297e-05
6.77348e-05
0.000115493
0.000150324
0.00018068
0.000214562
0.000251218
0.000287091
0.000324021
0.000396871
0.000639508
0.00112634
0.00129733
0.000740356
0.000354126
0.000228656
0.000182288
0.000148467
0.000119754
0.000105205
0.000106963
9.86054e-05
0.000143145
0.000202261
0.000298547
0.000405213
0.000482474
0.000540844
0.000580019
0.00062923
0.000773354
0.00107028
0.00118079
0.00086673
0.000631981
0.000545421
0.000503624
0.000435511
0.000338233
0.000241525
0.000163338
0.000130753
0.000172664
0.000227712
0.000283365
0.00034148
0.00040548
0.00047819
0.000564241
0.000670765
0.000807368
0.000971378
0.00104659
0.000886785
0.000730635
0.000607331
0.00050871
0.000425011
0.000351772
0.000287779
0.000228413
0.000170789
1.58835e-05
2.20922e-05
2.73987e-05
3.26442e-05
3.87995e-05
4.67474e-05
5.65461e-05
6.52215e-05
7.11105e-05
7.27226e-05
6.95866e-05
6.80113e-05
6.17125e-05
5.13509e-05
4.25149e-05
3.56924e-05
3.04987e-05
2.59636e-05
2.12491e-05
1.56082e-05
2.06248e-05
3.73194e-05
5.07231e-05
6.43596e-05
8.03749e-05
9.97612e-05
0.000123043
0.000151669
0.000253085
0.000247098
0.000245562
0.000257859
0.000132283
0.000100383
8.21993e-05
6.89007e-05
5.8252e-05
4.83584e-05
3.74689e-05
1.87041e-05
2.58086e-05
4.1841e-05
5.62941e-05
7.25204e-05
9.25209e-05
0.000116558
0.000150102
0.000220219
0.000492416
0.000436653
0.000444694
0.000506714
0.00018995
0.000112028
8.79722e-05
7.4595e-05
6.3751e-05
5.26918e-05
4.00211e-05
2.00138e-05
3.15719e-05
4.48168e-05
5.87039e-05
7.60102e-05
9.8072e-05
0.000127733
0.000178254
0.000310719
0.000735028
0.000660916
0.00067681
0.000764001
0.000272484
0.00012637
8.81439e-05
7.245e-05
6.0935e-05
4.96302e-05
3.68145e-05
1.97642e-05
4.14189e-05
5.16268e-05
6.53628e-05
8.4226e-05
0.000108583
0.000142734
0.000209495
0.00040638
0.000958223
0.000915705
0.000935486
0.00102067
0.000370308
0.000142759
8.71897e-05
6.83212e-05
5.59509e-05
4.50388e-05
3.37781e-05
2.05024e-05
6.39692e-05
6.93583e-05
7.98749e-05
9.88022e-05
0.000125921
0.000164799
0.000241869
0.000477645
0.00111604
0.0011736
0.00119631
0.00123983
0.000458665
0.00015951
8.9933e-05
6.74923e-05
5.33193e-05
4.26963e-05
3.58525e-05
3.59603e-05
8.94034e-05
0.000102954
0.000114261
0.000134018
0.000163714
0.000205508
0.00028574
0.000515734
0.00116742
0.00137715
0.00140819
0.00137393
0.000516636
0.000184273
0.000104184
7.65557e-05
6.01238e-05
5.2957e-05
5.70087e-05
6.6659e-05
0.000114346
0.000144047
0.000175
0.000209427
0.000249777
0.000293145
0.000353095
0.000534808
0.00112635
0.00147969
0.00152176
0.00138674
0.000563514
0.000243042
0.000168263
0.000134465
0.000109448
9.83503e-05
9.89271e-05
9.69707e-05
0.000142177
0.000195753
0.000291703
0.000390294
0.000460057
0.000514817
0.000575871
0.000715054
0.00107029
0.00146942
0.00152733
0.00128118
0.000778212
0.000550069
0.000463759
0.000400604
0.000310843
0.000224416
0.000153972
0.000129352
0.000175205
0.000233224
0.000292512
0.000355771
0.000427138
0.000512245
0.000620406
0.000767304
0.000971379
0.00119685
0.00124433
0.00107732
0.000844327
0.000669912
0.000543553
0.000445412
0.000363625
0.000295103
0.000232427
0.000172081
1.5646e-05
2.22078e-05
2.80542e-05
3.38814e-05
4.04909e-05
4.84936e-05
5.78195e-05
6.66481e-05
7.01232e-05
6.95866e-05
6.16214e-05
5.80811e-05
5.19893e-05
4.50169e-05
3.82296e-05
3.28667e-05
2.85902e-05
2.46604e-05
2.04533e-05
1.51312e-05
2.09738e-05
3.83324e-05
5.27981e-05
6.70161e-05
8.23882e-05
9.93352e-05
0.000118507
0.000141095
0.000251014
0.000245562
0.000207687
0.000235109
0.000111567
8.38678e-05
7.1155e-05
6.11968e-05
5.29014e-05
4.4707e-05
3.47687e-05
1.73686e-05
2.70803e-05
4.25876e-05
5.75704e-05
7.3988e-05
9.28627e-05
0.000114106
0.000144415
0.000215234
0.000533382
0.000444694
0.000340877
0.000527119
0.000170948
9.79143e-05
7.89343e-05
6.83159e-05
5.91752e-05
4.92734e-05
3.73874e-05
1.87642e-05
3.4129e-05
4.68693e-05
6.14131e-05
7.92285e-05
0.000100623
0.000127433
0.000174752
0.000312208
0.000816409
0.000676809
0.000478048
0.000861133
0.000260013
0.000112447
7.97828e-05
6.69032e-05
5.69297e-05
4.65773e-05
3.46978e-05
1.914e-05
4.48339e-05
5.55147e-05
7.09122e-05
9.16685e-05
0.000116374
0.000148066
0.000211392
0.00041839
0.00107919
0.000935484
0.000620717
0.00120093
0.000365677
0.000125374
7.73836e-05
6.23198e-05
5.18718e-05
4.21122e-05
3.20671e-05
2.12442e-05
6.47647e-05
7.2125e-05
8.70664e-05
0.00011039
0.000139545
0.000176572
0.000251458
0.000511147
0.00127531
0.0011963
0.000762235
0.00148338
0.000460999
0.000137347
7.79523e-05
6.09831e-05
4.98091e-05
4.11417e-05
3.58838e-05
3.65366e-05
8.85653e-05
0.000100942
0.000117063
0.000142884
0.000176604
0.000218238
0.000297943
0.000560134
0.00135029
0.00140819
0.000890697
0.00163964
0.000538253
0.00016399
9.26878e-05
7.20318e-05
5.91638e-05
5.3175e-05
5.64249e-05
6.56671e-05
0.000113195
0.000139509
0.000170879
0.000205163
0.000245607
0.000287564
0.000350931
0.000570745
0.00129734
0.00152176
0.000989075
0.00160214
0.000597783
0.000219868
0.000149748
0.000122069
0.000101708
9.42235e-05
9.41191e-05
9.53395e-05
0.00014166
0.000191504
0.000288323
0.000383681
0.000452284
0.000507201
0.000578891
0.000754989
0.0011808
0.00152733
0.00108762
0.00138347
0.000807508
0.000530422
0.000437248
0.000378806
0.000293447
0.000210065
0.000148264
0.000127554
0.000177818
0.000237817
0.000299495
0.000366073
0.000442435
0.000535182
0.000655564
0.00082142
0.00104659
0.00124433
0.00101243
0.00108701
0.000865714
0.000681488
0.000549234
0.000448109
0.000364336
0.000295388
0.000232178
0.000171352
1.6202e-05
2.30756e-05
2.91675e-05
3.49747e-05
4.10355e-05
4.78507e-05
5.55537e-05
6.30406e-05
6.73645e-05
6.80113e-05
5.80813e-05
3.79638e-05
3.39539e-05
3.41255e-05
3.15819e-05
2.86463e-05
2.571e-05
2.26215e-05
1.90444e-05
1.4295e-05
2.17721e-05
3.78593e-05
5.15671e-05
6.44404e-05
7.74105e-05
9.13777e-05
0.000107154
0.000125219
0.000147198
0.000257859
0.00023511
9.38493e-05
7.14907e-05
6.29564e-05
5.69506e-05
5.14336e-05
4.58933e-05
3.95407e-05
3.10465e-05
1.60057e-05
2.81856e-05
4.17435e-05
5.5237e-05
6.91074e-05
8.37333e-05
9.97381e-05
0.000121138
0.000157318
0.000243392
0.000506715
0.00052712
0.000193647
0.00010446
7.86872e-05
6.80675e-05
6.04509e-05
5.30626e-05
4.45214e-05
3.38783e-05
1.75805e-05
3.56754e-05
4.73959e-05
6.02586e-05
7.42687e-05
8.92146e-05
0.000106664
0.000134433
0.000198459
0.000378144
0.000764003
0.000861135
0.000340796
0.000141273
8.57174e-05
6.93515e-05
6.0311e-05
5.21278e-05
4.31139e-05
3.2408e-05
1.83326e-05
4.69234e-05
5.76163e-05
7.13805e-05
8.67897e-05
0.000102145
0.000119814
0.000151951
0.000244436
0.000522608
0.00102067
0.00120093
0.000513437
0.000177475
8.70073e-05
6.56997e-05
5.60133e-05
4.79033e-05
3.97026e-05
3.07766e-05
2.11062e-05
6.63306e-05
7.48823e-05
8.87963e-05
0.000106033
0.000122988
0.000141042
0.00017483
0.00028694
0.000644118
0.00123984
0.00148338
0.000672537
0.000205357
8.72305e-05
6.31985e-05
5.32289e-05
4.56286e-05
3.96092e-05
3.63993e-05
3.81734e-05
8.99541e-05
0.000102658
0.000118326
0.000139172
0.000159624
0.000179447
0.000213701
0.000331876
0.000715191
0.00137394
0.00163964
0.000799148
0.000245552
0.000103426
7.5345e-05
6.41438e-05
5.69272e-05
5.47656e-05
5.92857e-05
6.70713e-05
0.000115225
0.000142404
0.00017264
0.000205528
0.000235516
0.000261968
0.000292933
0.000384332
0.000740361
0.00138675
0.00160214
0.00085258
0.000302506
0.000175839
0.000145356
0.000124496
0.000108455
9.85827e-05
9.61147e-05
9.68601e-05
0.00014456
0.000198186
0.000293401
0.00039236
0.000465087
0.000513675
0.000555043
0.00063797
0.000866734
0.00128119
0.00138347
0.000960114
0.000622535
0.000505683
0.000468128
0.000411155
0.00031343
0.000219505
0.000151469
0.000129366
0.000178437
0.00023598
0.000294225
0.000355702
0.00042395
0.000502906
0.000599542
0.000723744
0.000886787
0.00107732
0.00108701
0.000927555
0.000754858
0.000621933
0.00051934
0.000433579
0.000358342
0.000292562
0.00023149
0.000172441
1.66293e-05
2.33315e-05
2.9181e-05
3.45811e-05
3.99824e-05
4.57436e-05
5.21047e-05
5.83774e-05
6.17888e-05
6.17125e-05
5.19895e-05
3.3954e-05
2.74054e-05
2.62904e-05
2.57527e-05
2.43164e-05
2.24565e-05
2.01258e-05
1.71636e-05
1.31276e-05
2.15307e-05
3.57057e-05
4.76735e-05
5.85817e-05
6.94443e-05
8.12799e-05
9.53354e-05
0.000110056
0.000121637
0.000132283
0.000111568
7.14908e-05
5.57032e-05
5.08833e-05
4.74121e-05
4.40673e-05
4.02709e-05
3.5119e-05
2.77308e-05
1.49798e-05
2.71354e-05
3.90854e-05
5.02379e-05
6.09409e-05
7.20535e-05
8.44926e-05
0.000100424
0.000121183
0.000146596
0.00018995
0.000170948
0.00010446
7.73112e-05
6.66735e-05
6.0158e-05
5.4468e-05
4.83119e-05