/*--------------------------------*- C++ -*----------------------------------*\
| =========                 |                                                 |
| \\      /  F ield         | OpenFOAM: The Open Source CFD Toolbox           |
|  \\    /   O peration     | Version:  1.7.1                                 |
|   \\  /    A nd           | Web:      www.OpenFOAM.com                      |
|    \\/     M anipulation  |                                                 |
\*---------------------------------------------------------------------------*/
FoamFile
{
    version     2.0;
    format      ascii;
    class       surfaceScalarField;
    location    "600";
    object      phi;
}
// * * * * * * * * * * * * * * * * * * * * * * * * * * * * * * * * * * * * * //

dimensions      [1 0 -1 0 0 0 0];

internalField   nonuniform List<scalar> 
11200
(
-0.00130719
0.00261432
-0.0013072
-0.00219195
0.00178878
-0.000904059
-0.00271719
0.000909276
-0.000384061
-0.00296887
0.000198804
5.28858e-05
-0.00305474
-0.000285579
0.000371475
-0.00307344
-0.000562138
0.00058088
-0.00300583
-0.000813471
0.000745894
-0.00275677
-0.00111651
0.000867493
-0.0022439
-0.00145165
0.000938853
-0.00135457
-0.00185703
0.000967825
-2.85571e-05
-0.00226218
0.000936332
0.00158247
-0.00239253
0.000781682
0.00287724
-0.00194682
0.000652165
0.00370211
-0.00143262
0.000607827
0.00413782
-0.00101774
0.000582076
0.00429222
-0.000685994
0.000531629
0.00419933
-0.00035565
0.000448557
0.00367907
0.00018408
0.000336182
0.00244628
0.00105028
0.000182479
0.00235347
9.27299e-05
-0.000628851
0.00387182
-0.000628866
-0.00144261
0.00326133
-0.000658961
-0.00240778
0.00249247
-0.000618113
-0.00326025
0.00158283
-0.000531575
-0.00374553
0.000544181
-0.000344455
-0.00363233
-0.000585185
-9.01009e-05
-0.00330515
-0.00119662
5.60331e-05
-0.00277902
-0.00180162
0.00015907
-0.00206658
-0.00235039
0.00018643
-0.00114527
-0.00295889
0.000180737
-9.38223e-06
-0.0035329
0.000135086
0.00113637
-0.0035736
3.55696e-05
0.00204916
-0.00282219
-3.72409e-05
0.00268411
-0.00201842
-4.90474e-05
0.00307162
-0.00135258
-5.26058e-05
0.0033524
-0.000867646
-9.90917e-05
0.00314429
4.84796e-05
-0.000196028
0.00221793
0.001469
-0.000358606
0.0010672
0.002601
-0.000400123
0.00364256
-0.00022212
0.000399466
0.00307237
0.000399452
0.000304338
0.00316982
0.000186202
-0.000202024
0.00300018
-1.67459e-06
-0.00101732
0.00260858
-0.00021066
-0.00201954
0.00193967
-0.000393384
-0.00265727
0.000595028
-0.00054249
-0.00268803
-0.000659483
-0.00050632
-0.00204709
-0.00200753
-0.000434915
-0.00144304
-0.00247526
-0.000479022
-0.000750443
-0.00313743
-0.000513838
-7.44959e-05
-0.00368074
-0.000527829
0.000448737
-0.00357477
-0.000521793
0.000855319
-0.00273463
-0.000493954
0.00113616
-0.00186704
-0.000432106
0.00130847
-0.00113988
-0.00038495
0.00103408
-0.000155183
-0.000438073
0.000291946
0.00123203
-0.000441474
-0.000340758
0.0024306
-0.000329097
-0.000449508
0.00287348
-0.000164035
0.0030886
0.000104027
0.00167264
-0.000273509
0.00167263
0.0023235
0.00115154
0.00136688
0.00230098
0.00204412
0.000978154
0.00199158
0.00226927
0.000648395
0.00164815
0.0019292
0.000353669
0.000799918
0.00135387
8.92631e-05
-0.000135635
0.000498226
-0.000222189
-0.000529297
-0.00102797
-0.000585803
-0.000407755
-0.00192425
-0.000672391
-0.000187994
-0.00268474
-0.00067224
-9.83323e-05
-0.00314638
-0.000623767
-0.000186493
-0.00295334
-0.000533038
-0.000411436
-0.00208676
-0.000422765
-0.000834489
-0.00113512
-0.000308791
-0.00154153
-0.000210557
-0.000222266
-0.00232592
0.000701222
-7.20423e-05
-0.00266972
0.00146266
0.000113037
-0.00252638
0.00194575
0.000341284
-0.00196721
0.00169262
0.000621366
8.01363e-05
0.00104078
0.00169325
-0.00366006
0.00169324
0.00281981
-0.0017196
0.00174443
0.00341306
-0.000195375
0.00164603
0.00349855
0.000730859
0.00145271
0.00330009
0.000885562
0.00124193
0.00303668
0.000577201
0.00103996
0.00266493
9.54831e-05
0.000774451
0.00187702
-0.000682783
0.000442744
0.00126717
-0.00152168
0.000207388
0.000718197
-0.00223876
0.000103147
7.78037e-05
-0.00261194
0.000106124
-0.000629699
-0.00244629
0.000200604
-0.00141363
-0.0016967
0.000393954
-0.00229752
-0.000881322
0.000630123
-0.00314414
-0.000200334
0.000836368
-0.00363985
0.000242296
0.000954574
-0.00368475
0.000466746
0.00104072
-0.00313056
0.000207735
0.00118369
-0.00191161
-0.000911647
0.00138519
-0.00350117
0.00166966
0.000917496
-0.00549508
0.000917486
0.00152062
-0.00370413
0.00138136
0.00190361
-0.00228703
0.00170862
0.00220135
-0.00143065
0.00186369
0.0023666
-0.00117695
0.00189719
0.00242262
-0.00132357
0.00184469
0.00247185
-0.00168149
0.00172771
0.00233726
-0.00211664
0.00156843
0.00197644
-0.00256201
0.00140114
0.00135394
-0.00289706
0.00128083
0.000498383
-0.00296618
0.00120983
-0.000264398
-0.00289861
0.00121513
-0.000833686
-0.00253312
0.00140573
-0.00128389
-0.00209793
0.0016668
-0.00163364
-0.00171667
0.00186607
-0.00184179
-0.00149691
0.00194731
-0.00177568
-0.00152821
0.00192881
-0.00138574
-0.00203299
0.00185075
-0.000676138
-0.00329664
0.00167536
-0.00567476
0.00149743
0.000358626
-0.00621236
0.000358617
0.000329715
-0.00472506
0.00104979
0.000196761
-0.00367253
0.00151841
0.000237252
-0.00325457
0.00178338
0.000372987
-0.00322556
0.00191283
0.00059134
-0.00344629
0.00190432
0.000839275
-0.00375236
0.0018229
0.00105762
-0.00404469
0.00170967
0.00113733
-0.00426397
0.00162222
0.000931726
-0.00430245
0.00161097
0.000495117
-0.00412629
0.00159669
0.000234204
-0.00414467
0.00150695
0.000213794
-0.00408785
0.00157512
0.0002718
-0.00392645
0.00177049
0.000308822
-0.00370645
0.00195273
0.000289599
-0.00352208
0.00204437
0.000252882
-0.00349585
0.00200432
0.000179665
-0.00377853
0.00181873
0.000171022
-0.00478303
0.00149501
-0.00665368
0.00114991
-0.000199441
-0.00581352
-0.000199449
-0.00072057
-0.00480216
0.000598179
-0.00113248
-0.00423426
0.000973593
-0.00131381
-0.00418207
0.00110877
-0.00127369
-0.00436442
0.00109869
-0.00105593
-0.0046628
0.000998701
-0.000689638
-0.00497672
0.000858028
-0.000230755
-0.00522904
0.000725423
0.000167174
-0.00535043
0.000688492
0.000326395
-0.00528171
0.000820008
0.000346988
-0.00504557
0.000898658
0.000642369
-0.00513256
0.000692474
0.00111254
-0.00518884
0.000630781
0.00154526
-0.00511933
0.000760131
0.00181972
-0.00494282
0.000961885
0.00188525
-0.00472946
0.00114181
0.00172532
-0.00457204
0.0012361
0.00136646
-0.00459501
0.0011753
0.00077045
-0.00515383
0.000966776
-0.00644964
0.000566381
-0.000901808
-0.00400995
-0.000901816
-0.00189915
-0.00349266
-0.000312219
-0.00254221
-0.00335711
-0.000234155
-0.00284871
-0.00355663
-0.000318991
-0.00285139
-0.00386753
-0.000494277
-0.00258731
-0.00421731
-0.000709624
-0.00209123
-0.00454853
-0.000924314
-0.00142769
-0.0048121
-0.00108054
-0.000727978
-0.00495882
-0.00109136
-0.000177666
-0.0049672
-0.000864869
0.000319937
-0.00482113
-0.00072208
0.00113426
-0.00491327
-0.00103365
0.00202375
-0.0049272
-0.00115117
0.00275979
-0.00480093
-0.00105448
0.00322668
-0.00456778
-0.000841975
0.00337172
-0.00427502
-0.000599527
0.00316301
-0.00397892
-0.000384446
0.00257797
-0.00375684
-0.000253169
0.00149988
-0.0038648
-0.000210989
-0.00452495
-0.000424839
-0.002005
-0.00200501
-0.00338713
-0.00211059
-0.00414679
-0.00259752
-0.00452437
-0.00317911
-0.00456692
-0.00382505
-0.00429352
-0.00449077
-0.00371103
-0.00513108
-0.0028443
-0.00567887
-0.00178459
-0.00601858
-0.00073724
-0.00601459
0.00056866
-0.00612708
0.00205492
-0.00639957
0.00335723
-0.00622956
0.00431559
-0.00575934
0.0048805
-0.00513273
0.00504173
-0.00443629
0.00479237
-0.0037296
0.00410037
-0.00306489
0.00265312
-0.00241759
-0.00187186
-0.000904051
0.00178878
-0.00219198
-0.00169464
0.00158114
-0.00169465
-0.00225012
0.00112144
-0.000950054
-0.00259548
0.000625789
-0.000227549
-0.00277485
0.000175983
0.000374864
-0.00285654
-0.00016825
0.000830833
-0.00288417
-0.000400099
0.00117364
-0.00273801
-0.000726804
0.00144817
-0.00227653
-0.00116084
0.00163829
-0.00137959
-0.00166016
0.00173116
-1.7638e-05
-0.00212641
0.00170096
0.00161837
-0.00232229
0.00146814
0.00293102
-0.00189279
0.00123243
0.00376716
-0.00132474
0.00109651
0.00419579
-0.000827554
0.000981038
0.00433313
-0.000446464
0.000840776
0.00420907
-9.19866e-05
0.000664609
0.00363319
0.000502775
0.000409282
0.00238011
0.00131853
0.000116984
0.00256907
-9.63151e-05
-0.000658954
0.00326133
-0.00144263
-0.00133023
0.00292354
-0.00133024
-0.00205206
0.00237771
-0.00115265
-0.0027384
0.00171569
-0.000935194
-0.00324277
0.00097897
-0.00064309
-0.00333878
0.000107491
-0.000269824
-0.00314191
-0.000592523
5.1618e-05
-0.00274474
-0.00125063
0.000285785
-0.00211054
-0.00201838
0.000409898
-0.00121402
-0.00281704
0.000441285
-6.55158e-05
-0.00352433
0.000384758
0.00108663
-0.00367578
0.000237174
0.00199542
-0.00293628
9.76516e-05
0.00263208
-0.00201436
4.01681e-06
0.00301628
-0.00116699
-9.73161e-05
0.00323681
-0.000509672
-0.000256389
0.00290998
0.000530117
-0.000491311
0.00204116
0.00170336
-0.000690448
0.000961294
0.00272535
-0.000727221
0.00380959
-0.000501587
0.000186211
0.00316982
0.000304315
0.000104955
0.00308568
0.000104938
-0.000259508
0.00289098
-0.000150781
-0.000892394
0.00253416
-0.000396456
-0.00163473
0.00194519
-0.000617409
-0.00224099
0.000956888
-0.000785668
-0.00237815
-0.00019664
-0.000765025
-0.00193673
-0.00149338
-0.000633505
-0.00142505
-0.00238574
-0.000623203
-0.000812743
-0.00330543
-0.000637543
-0.000185122
-0.00403257
-0.000646932
0.000296906
-0.00404512
-0.000634207
0.000652647
-0.00317155
-0.000614234
0.00091026
-0.00210607
-0.000597894
0.00106744
-0.00106925
-0.000639829
0.000769283
0.000123058
-0.000772659
0.000100874
0.00152305
-0.000766099
-0.00040222
0.00243049
-0.000553341
-0.000501554
0.00294451
-0.000284179
0.00332716
8.44854e-05
0.00136689
0.00115154
0.00232349
0.00200324
0.00181252
0.00200323
0.00212548
0.00221122
0.00153527
0.00195423
0.00228491
0.00106859
0.00163747
0.0019827
0.000632687
0.00105719
0.00141599
0.000210287
0.000256162
0.000631017
-0.000248867
-0.000236636
-0.000880835
-0.00070549
-0.000287324
-0.00214819
-0.000859119
-0.00022155
-0.00314949
-0.000893746
-0.000234329
-0.00380797
-0.000835345
-0.000442374
-0.00369019
-0.000679692
-0.000802834
-0.00272937
-0.000504318
-0.0012896
-0.00157284
-0.000355175
-0.00195485
-0.000377291
-0.000248963
-0.00263233
0.00075467
-2.62222e-05
-0.00282437
0.00152535
0.000302625
-0.00268057
0.00194541
0.000682322
-0.00202095
0.00176366
0.00114225
0.000647578
0.00169893
0.00174444
-0.0017196
0.00281979
0.00291496
-0.000528727
0.00291495
0.0035409
0.000503699
0.00272737
0.00370416
0.00119295
0.00238118
0.00359663
0.00132601
0.00200596
0.00334995
0.00108515
0.00161736
0.00298692
0.000593101
0.00117533
0.00216011
-0.000199658
0.000588395
0.0013682
-0.00129999
0.000151187
0.000663112
-0.00229601
-4.50961e-05
-9.52258e-05
-0.00292533
-1.80074e-05
-0.00100137
-0.00277896
0.000195678
-0.00201195
-0.00183302
0.000508288
-0.00300776
-0.000796982
0.000850117
-0.00381959
9.54565e-05
0.00117545
-0.00417817
0.000594329
0.00147344
-0.00413047
0.000795595
0.00172267
-0.00355606
0.000526325
0.00202822
-0.00223857
-0.00054744
0.00237866
-0.00267816
0.00275674
0.00138137
-0.00370413
0.0015206
0.00232718
-0.00242038
0.00232717
0.002945
-0.0012168
0.00281125
0.0033309
-0.0003029
0.00297357
0.00349496
0.000127676
0.00293139
0.00350205
0.000165116
0.00275757
0.00342181
-9.85743e-05
0.00249959
0.00310264
-0.000490785
0.00217873
0.00243754
-0.00105111
0.00181739
0.00151349
-0.00163215
0.00154107
0.00036416
-0.00197478
0.00140869
-0.000814424
-0.00189475
0.00150957
-0.00182983
-0.00129798
0.00188614
-0.00260409
-0.000686042
0.00233015
-0.00306464
-0.000271565
0.00269362
-0.00322344
-0.000159856
0.00286027
-0.00303115
-0.000377752
0.00290982
-0.00241952
-0.00111958
0.00288499
-0.00138327
-0.00256779
0.00265944
-0.00478414
0.00222013
0.0010498
-0.00472506
0.000329696
0.00154424
-0.00340931
0.00154423
0.001776
-0.00229658
0.00236639
0.00194057
-0.0015318
0.00284767
0.00210003
-0.00118075
0.00306177
0.00224238
-0.00113388
0.00306093
0.00231107
-0.00127396
0.00292958
0.00225298
-0.00146812
0.00274508
0.00196402
-0.00168537
0.00254543
0.0013724
-0.00183609
0.00240653
0.000516149
-0.00182737
0.00230554
-0.000345629
-0.00177757
0.00225156
-0.000963863
-0.00159706
0.00249242
-0.00132688
-0.00141657
0.00286403
-0.00150989
-0.00129381
0.00315797
-0.00156959
-0.00132751
0.00327171
-0.00150731
-0.00161839
0.00318265
-0.00129351
-0.00235251
0.00283783
-0.000838549
-0.00371856
0.0021908
-0.00576404
0.00129124
0.000598187
-0.00480216
-0.000720586
0.000695256
-0.00360349
0.000695241
0.000595943
-0.00273686
0.00151314
0.000567257
-0.00229424
0.00189984
0.000642574
-0.0021545
0.00199708
0.000799762
-0.0021884
0.001896
0.000975109
-0.00228506
0.00169375
0.00109904
-0.00236191
0.00149527
0.00106579
-0.00237764
0.00141399
0.000782769
-0.00225906
0.00152599
0.000319079
-0.00207846
0.00161343
-3.55909e-05
-0.0021323
0.00140186
-0.000173437
-0.00220599
0.00137754
-0.000174951
-0.00224736
0.00159242
-0.000143432
-0.00226373
0.00190026
-0.000159495
-0.00231041
0.00214076
-0.000231467
-0.00248651
0.00217616
-0.000393173
-0.00293162
0.00191608
-0.000367657
-0.00399404
0.0012167
-0.00563608
7.07396e-05
-0.000312212
-0.00349266
-0.00189916
-0.000748109
-0.00273175
-0.000748122
-0.00116558
-0.00229909
-0.000254509
-0.00138021
-0.00222315
-0.000175497
-0.00137616
-0.0022688
-0.000384074
-0.00118261
-0.00236441
-0.000727212
-0.000841733
-0.00245712
-0.00109316
-0.000414441
-0.00250713
-0.00136265
-1.04478e-05
-0.00247708
-0.00139594
0.00022542
-0.00231582
-0.001044
0.000221258
-0.00207977
-0.000716635
0.000529446
-0.00223051
-0.00124365
0.000991129
-0.00237752
-0.00144134
0.00141253
-0.00245149
-0.00127177
0.00167645
-0.00246545
-0.000904211
0.00171729
-0.00244915
-0.000501657
0.00149852
-0.0024515
-0.000200713
0.00106375
-0.00254624
-0.000203806
0.000486895
-0.00305304
-0.000575164
-0.00405846
-0.00151559
-0.00211059
-0.00338715
-0.0034765
-0.0034765
-0.00425237
-0.00412081
-0.00466173
-0.00499296
-0.00475698
-0.00599866
-0.00455486
-0.00705735
-0.0040503
-0.00809281
-0.00323362
-0.00900273
-0.00211736
-0.00961197
-0.00069866
-0.00974916
0.00102641
-0.00993197
0.00258695
-0.0101907
0.00381142
-0.0098316
0.00464249
-0.00904195
0.00507244
-0.00802817
0.00510863
-0.00692168
0.00474855
-0.00582106
0.00395557
-0.00481819
0.00245117
-0.00396628
-0.00347919
-0.000384057
0.000909277
-0.00271722
-0.000950043
0.00112144
-0.00225014
-0.00147759
0.00105507
-0.00147761
-0.00190477
0.000831282
-0.000631681
-0.00220207
0.000526349
0.000145798
-0.00241056
0.000202999
0.000836304
-0.00254654
-8.5713e-05
0.00139533
-0.00253151
-0.000417942
0.0018511
-0.00218664
-0.000901124
0.00219461
-0.001364
-0.00147716
0.0023858
-4.01919e-05
-0.00200752
0.00238483
0.00157061
-0.00224603
0.00210356
0.00286779
-0.00182963
0.00176501
0.00367999
-0.00122967
0.00151405
0.00406894
-0.000687336
0.00127946
0.00416042
-0.000277177
0.00102648
0.00395959
0.000131372
0.000734058
0.00333406
0.000686679
0.000348111
0.00211835
0.00140736
-7.47162e-05
0.00244893
-0.00042698
-0.000618109
0.00249247
-0.00240781
-0.00115264
0.00237771
-0.00205208
-0.00168748
0.00212465
-0.00168749
-0.0022071
0.00172417
-0.00130854
-0.00262837
0.00120169
-0.000897218
-0.00283276
0.00057837
-0.000440829
-0.00278096
-9.62754e-05
1.03719e-05
-0.00252999
-0.000764332
0.000381249
-0.00202239
-0.00163705
0.000638321
-0.00121727
-0.00259509
0.000754277
-0.00013135
-0.00343662
0.000728195
0.000972171
-0.0036716
0.000559484
0.00185276
-0.00294934
0.000336953
0.00246292
-0.00195255
0.000116841
0.00280696
-0.000998203
-0.000130439
0.00292451
-0.000226534
-0.000424575
0.0025586
0.000778457
-0.000772515
0.0017955
0.00176613
-0.00100689
0.000851389
0.00268583
-0.00106173
0.00367866
-0.000880151
-1.66848e-06
0.00300018
-0.000202053
-0.000150767
0.00289098
-0.000259532
-0.000447147
0.00271716
-0.000447167
-0.000917635
0.0024338
-0.000635797
-0.00146368
0.00192863
-0.000798448
-0.00191641
0.00114619
-0.000900824
-0.00206883
0.000159264
-0.000868156
-0.00178093
-0.00101247
-0.000673226
-0.00137037
-0.00211205
-0.000558646
-0.00084925
-0.00324692
-0.00050663
-0.000288757
-0.00416407
-0.000479718
0.000153212
-0.00427877
-0.000468758
0.000491092
-0.00339453
-0.000506733
0.000740324
-0.00218892
-0.000610653
0.000880048
-0.00097115
-0.000806572
0.000626327
0.000311024
-0.00105652
0.000105204
0.00160278
-0.00106941
-0.000301077
0.0024559
-0.00083703
-0.000398514
0.00302674
-0.000527953
0.0035457
-0.00018145
0.000978161
0.00204412
0.00230096
0.00153528
0.00221121
0.00212546
0.00172213
0.00234312
0.00172211
0.00164985
0.00232389
0.00125048
0.00140151
0.00203554
0.00077388
0.000960467
0.00151194
0.000285427
0.000323899
0.000743292
-0.000196398
-0.000113525
-0.000662005
-0.000618514
-0.000247828
-0.00207456
-0.000762195
-0.000287701
-0.00331089
-0.000789725
-0.000368566
-0.00420849
-0.00070984
-0.000613984
-0.00417446
-0.000538361
-0.000987625
-0.00314694
-0.000378121
-0.00144065
-0.00180842
-0.00028257
-0.0020101
-0.000411138
-0.000239518
-0.00256252
0.000855056
-1.79028e-05
-0.00268348
0.00165839
0.000367803
-0.00248047
0.00210548
0.000829483
-0.00178511
0.00212742
0.00134587
0.0016058
0.00185327
0.00164603
-0.000195379
0.00341304
0.00272739
0.000503696
0.00354088
0.00334623
0.00110519
0.00334622
0.00358683
0.00149986
0.0029644
0.0035558
0.00156367
0.00250866
0.00335264
0.00131502
0.0020173
0.00299885
0.000784037
0.0014883
0.00220732
-9.2385e-05
0.000810299
0.0013523
-0.00136688
0.000298595
0.000552425
-0.00259359
3.76034e-05
-0.000275113
-0.00344635
4.7556e-05
-0.00123386
-0.00332713
0.000307251
-0.00230204
-0.0022381
0.00066775
-0.00332344
-0.00097846
0.0010416
-0.00410392
0.000126914
0.00141789
-0.00438502
0.000786573
0.00182296
-0.00425658
0.00106954
0.00218297
-0.00365255
0.000924096
0.00260542
-0.00230558
0.000122044
0.00303689
-0.00128005
0.00333685
0.00170863
-0.00228703
0.00190358
0.00281126
-0.0012168
0.00294498
0.00353364
-0.000339633
0.00353363
0.00393063
0.0003834
0.00369296
0.00406516
0.000778249
0.0035822
0.00402144
0.000797594
0.00331866
0.00382956
0.000515031
0.00296045
0.0033936
-2.02385e-05
0.00254254
0.00255426
-0.000741205
0.00203109
0.00144681
-0.00156709
0.0016221
0.000107248
-0.00214932
0.00145131
-0.00129235
-0.00205784
0.00163997
-0.00253059
-0.00124673
0.00213306
-0.0034763
-0.000391555
0.002689
-0.00399127
0.000180881
0.00315463
-0.0041356
0.000398493
0.00339265
-0.00386401
0.000182718
0.00352502
-0.00309384
-0.000490808
0.00352968
-0.00182902
-0.00171587
0.00323251
-0.00342835
0.00253939
0.00151842
-0.00367253
0.000196732
0.0023664
-0.00229658
0.00177598
0.00286859
-0.00134404
0.00286857
0.00317284
-0.000587197
0.00351398
0.00336166
-0.000134483
0.00378566
0.0034285
8.6233e-06
0.00378304
0.00334773
-8.76349e-05
0.00361301
0.00304438
-0.000346718
0.00337492
0.00247472
-0.000695668
0.00306956
0.0015589
-0.00103137
0.00278664
0.000329685
-0.00122737
0.00261285
-0.000930434
-0.00118242
0.00263629
-0.00191614
-0.000827552
0.00305897
-0.0025648
-0.000476808
0.00359796
-0.00290376
-0.000273138
0.00395095
-0.00294976
-0.000338092
0.00405428
-0.00276598
-0.000721406
0.00390299
-0.00228554
-0.00152761
0.00339417
-0.00144882
-0.00278477
0.00242297
-0.00456586
0.000979903
0.0009736
-0.00423427
-0.0011325
0.00151315
-0.00273686
0.000595921
0.00176049
-0.00183875
0.00176047
0.00190634
-0.00124284
0.0024096
0.00203855
-0.000926708
0.00265708
0.00214195
-0.000796204
0.0025974
0.00217011
-0.000777305
0.00235526
0.00205776
-0.000807078
0.00206798
0.0017143
-0.000844485
0.00190627
0.00104149
-0.000817006
0.00198444
0.000137827
-0.000774741
0.00206447
-0.000704421
-0.00078335
0.00184504
-0.00126631
-0.000780233
0.00189211
-0.00154937
-0.000785764
0.00218444
-0.00165694
-0.000846887
0.00258158
-0.00166907
-0.00101646
0.00283124
-0.00160501
-0.00136273
0.00275342
-0.00142198
-0.00201765
0.00222308
-0.00099109
-0.00309641
0.00109744
-0.00484948
-0.000636756
-0.00023415
-0.00335711
-0.00254223
-0.000254494
-0.00229909
-0.0011656
-0.000349262
-0.00164926
-0.000349284
-0.000318128
-0.00139447
-5.50514e-05
-0.000207232
-0.00127415
-0.00014756
-2.09068e-05
-0.00121584
-0.000493929
0.00021298
-0.0011662
-0.000938168
0.000405987
-0.00107531
-0.00128744
0.000489426
-0.000886827
-0.00143705
0.000386567
-0.000501542
-0.00125662
8.52009e-05
-0.000146807
-0.00104321
-1.25527e-05
-0.00049175
-0.00143751
5.78162e-05
-0.000819813
-0.00147214
0.000211795
-0.00104585
-0.00116569
0.00036175
-0.0012093
-0.000691767
0.000436395
-0.00135112
-0.000241657
0.000428331
-0.00152594
-2.94688e-05
0.000293233
-0.00180928
-0.00027711
0.000227982
-0.00254534
-0.00106102
-0.00377768
-0.00235945
-0.00259752
-0.0041468
-0.00412082
-0.00425237
-0.00494548
-0.00494547
-0.00537591
-0.00595706
-0.00547972
-0.00716905
-0.00527558
-0.00847739
-0.00474766
-0.00978698
-0.00384853
-0.0109772
-0.00253321
-0.0118142
-0.000728877
-0.0120551
0.00145761
-0.0122653
0.00326572
-0.0124906
0.00458463
-0.0119704
0.00542907
-0.0109323
0.0058322
-0.00964065
0.00582461
-0.00826526
0.00540846
-0.00693089
0.00453804
-0.00575709
0.00286779
-0.00484141
-0.00438912
5.28897e-05
0.000198805
-0.0029689
-0.00022754
0.00062579
-0.00259551
-0.000631664
0.000831282
-0.00190479
-0.0010603
0.000857242
-0.00106032
-0.00146006
0.000742969
-0.000197441
-0.00179003
0.000519631
0.000646608
-0.00205076
0.000241382
0.00141465
-0.00217192
-0.000132465
0.00210472
-0.00198339
-0.000655127
0.00266124
-0.00130071
-0.00130763
0.00301085
-8.59438e-05
-0.00190026
0.00307049
0.0014404
-0.0021678
0.0027452
0.00268619
-0.00177136
0.0022907
0.00345323
-0.00115822
0.0019053
0.00379089
-0.000591043
0.00153288
0.00381798
-0.000157013
0.0011564
0.00353455
0.000277563
0.000739913
0.00287073
0.000760485
0.000251412
0.00173477
0.00131563
-0.000254448
0.00198261
-0.000674894
-0.000531572
0.00158283
-0.00326028
-0.00093519
0.00171569
-0.00273842
-0.00130853
0.00172417
-0.00220711
-0.00166853
0.00157716
-0.00166854
-0.00197661
0.00127997
-0.00112622
-0.00219531
0.000870699
-0.000573266
-0.0022661
0.000338247
-1.57495e-05
-0.00216182
-0.000347541
0.000492058
-0.00181014
-0.00127988
0.00091147
-0.00115534
-0.00236761
0.00115963
-0.000208928
-0.00331222
0.00119397
0.000782924
-0.00359383
0.000993908
0.00160048
-0.00290442
0.000652636
0.00216593
-0.00188511
0.000278376
0.00246038
-0.000891115
-0.000124775
0.00250257
-7.85755e-05
-0.000545213
0.00216053
0.000816472
-0.000969423
0.00152003
0.00165734
-0.00126334
0.000738193
0.00242246
-0.00138686
0.00317248
-0.001332
-0.000210653
0.00260858
-0.00101735
-0.000396444
0.00253416
-0.00089242
-0.000635782
0.0024338
-0.000917657
-0.000958969
0.00222336
-0.000958986
-0.00130884
0.00181365
-0.000982394
-0.00159566
0.00121032
-0.000953711
-0.00168811
0.000378522
-0.000816036
-0.0015229
-0.000632849
-0.000553111
-0.00123172
-0.00182326
-0.000306349
-0.00083584
-0.00312232
-0.000147633
-0.000390852
-0.00416698
-6.97189e-05
-2.71936e-05
-0.0043225
-0.000103523
0.00028909
-0.00345537
-0.000271898
0.000538815
-0.00220255
-0.000542844
0.000687578
-0.000943093
-0.000903333
0.000528052
0.000301918
-0.00127752
0.000169372
0.00149049
-0.00138485
-0.000128062
0.00234915
-0.00123158
-0.00022286
0.00296543
-0.000976372
0.00351456
-0.000746708
0.000648401
0.00226926
0.00199155
0.0010686
0.0022849
0.00195421
0.00125049
0.00232388
0.00164983
0.0012354
0.0022533
0.00123538
0.00105198
0.00199068
0.000780053
0.000713353
0.00152086
0.00031335
0.000275744
0.000733813
-0.000114163
-3.82158e-05
-0.000551101
-0.000386303
-0.000208795
-0.00197368
-0.000441116
-0.000338823
-0.0033579
-0.000423967
-0.000497171
-0.00439609
-0.000322184
-0.000769577
-0.00437751
-0.000210757
-0.00109429
-0.00333894
-0.00016969
-0.00142865
-0.00194013
-0.000210563
-0.00183918
-0.000480668
-0.000291415
-0.00223792
0.00085717
-0.000174492
-0.00231583
0.00173142
0.000204621
-0.00206635
0.00226712
0.000661799
-0.00139255
0.00250979
0.00112739
0.00251188
0.00146301
0.00145272
0.000730855
0.00349852
0.00238119
0.00119295
0.00370414
0.0029644
0.00149986
0.00358682
0.00324478
0.00169233
0.00324477
0.00328121
0.001674
0.00278873
0.00314291
0.00139525
0.00228107
0.00279751
0.000827162
0.00174027
0.00208586
-0.000123645
0.00109447
0.00126748
-0.00148245
0.000625795
0.000428611
-0.00284327
0.000361949
-0.000464191
-0.00382025
0.000364653
-0.00143378
-0.00368042
0.0005799
-0.00243424
-0.00253457
0.000863946
-0.00334947
-0.00115647
0.00117322
-0.00403932
0.000108769
0.0015183
-0.00424691
0.000920292
0.00196736
-0.00403465
0.0013424
0.00235961
-0.0033922
0.00143009
0.00279984
-0.00217957
0.00113195
0.0032019
0.000220144
0.00344879
0.0018637
-0.00143065
0.00220131
0.00297358
-0.000302902
0.00333087
0.00369297
0.000383398
0.00393061
0.00409707
0.000884035
0.00409707
0.00425196
0.00111697
0.00398426
0.00420716
0.0010606
0.00369804
0.00396584
0.000724081
0.00330481
0.00345057
0.000104339
0.00282983
0.00251342
-0.000772587
0.00225841
0.00128201
-0.00176148
0.00177179
-0.000198622
-0.00248609
0.00159788
-0.00172053
-0.00234026
0.00182182
-0.00303556
-0.00140444
0.00231803
-0.00400468
-0.0003949
0.0028966
-0.00449741
0.000354934
0.00340121
-0.00458185
0.000714508
0.00368285
-0.00425627
0.000692968
0.00384883
-0.003427
0.000255665
0.00387478
-0.00205668
-0.000558237
0.00355232
-0.00201437
0.00271719
0.00178339
-0.00325457
0.000237215
0.00284768
-0.0015318
0.00194055
0.00351399
-0.000587198
0.00317283
0.00389563
0.000120723
0.00389563
0.0040805
0.000525331
0.0041924
0.00411056
0.00062961
0.00418396
0.00397347
0.000487528
0.00398664
0.00354554
0.000201739
0.00370546
0.00275282
-0.000246036
0.00333576
0.00157443
-0.000733618
0.00293721
9.63412e-06
-0.00105153
0.00274313
-0.00155455
-0.001007
0.00286727
-0.00274148
-0.000537039
0.00337854
-0.00355986
4.53076e-05
0.00397616
-0.00392335
0.000312663
0.00435672
-0.00393227
0.00033343
0.00444428
-0.00362474
3.6492e-05
0.00425193
-0.00292915
-0.000709584
0.00366381
-0.00181444
-0.00175513
0.00250513
-0.00359151
0.00074258
0.00110877
-0.00418207
-0.00131383
0.00189985
-0.00229424
0.000567229
0.00240961
-0.00124284
0.00190632
0.00273633
-0.000532729
0.00273632
0.00296103
-0.000168713
0.00312641
0.00305435
-3.88055e-06
0.00313756
0.00298102
1.28774e-05
0.00290325
0.00272281
-6.16315e-05
0.00258957
0.00217215
-0.00013068
0.00234158
0.00115992
-4.67465e-05
0.00230982
-0.000198839
2.2894e-05
0.00234882
-0.00142353
-0.000144212
0.00220697
-0.00222954
-0.000182217
0.00234331
-0.00261462
-0.000119234
0.00273408
-0.00275771
-0.000117195
0.00315454
-0.00269878
-0.000234202
0.00333995
-0.00245612
-0.000562187
0.00310943
-0.0020045
-0.00128616
0.00234801
-0.00123541
-0.00239601
0.000969204
-0.00449495
-0.000968764
-0.000318988
-0.00355664
-0.00284873
-0.000175485
-0.00222316
-0.00138024
-5.50344e-05
-0.00139447
-0.000318156
0.00017904
-0.0010009
0.000179016
0.000384008
-0.000733449
0.000212183
0.000597218
-0.000537056
-0.000173978
0.000787095
-0.000358594
-0.000756583
0.000832283
-0.000138292
-0.00125598
0.000686048
0.000142915
-0.00156441
0.000388607
0.000587261
-0.00159319
-6.3935e-05
0.000949333
-0.00151711
-0.000378553
0.000500252
-0.00176735
-0.000540628
0.000119633
-0.00161192
-0.000517204
-0.000174954
-0.0011334
-0.000404883
-0.000473827
-0.000447461
-0.000269266
-0.000743496
0.00013201
-0.000103513
-0.00105641
0.000298981
-2.60403e-05
-0.00147138
-0.000169385
0.000225445
-0.00238576
-0.00132279
-0.00387047
-0.00275851
-0.00317911
-0.00452439
-0.00499297
-0.00466173
-0.00595707
-0.00537589
-0.00645755
-0.00645753
-0.00657839
-0.00778171
-0.00635434
-0.00923855
-0.00576764
-0.0107323
-0.00472133
-0.0121619
-0.00310692
-0.0132857
-0.000810016
-0.0137648
0.00196827
-0.0140943
0.00414704
-0.0141691
0.00565088
-0.0133546
0.00656988
-0.0120263
0.00697548
-0.0105201
0.00693189
-0.00896521
0.00643022
-0.00748567
0.00541445
-0.00621274
0.0034532
-0.00526596
-0.00480642
0.000371478
-0.00028558
-0.00305477
0.000374872
0.000175982
-0.00277489
0.000145814
0.000526347
-0.00220211
-0.000197415
0.000742967
-0.00146009
-0.000604798
0.000814735
-0.000604831
-0.00101139
0.000731002
0.000322155
-0.00138387
0.000506527
0.00128056
-0.00163986
0.000122392
0.00223829
-0.00164256
-0.000451782
0.00311574
-0.00118423
-0.00120042
0.00375305
-0.000169978
-0.00185253
0.00390892
0.00120942
-0.00211173
0.00347771
0.0023715
-0.00172453
0.00285327
0.00308047
-0.00109969
0.00229608
0.00336621
-0.000522238
0.0017694
0.00333401
-7.54137e-05
0.001264
0.0029857
0.000351637
0.000736551
0.00231062
0.00074846
0.000177991
0.00130134
0.00110342
-0.000348634
0.00137529
-0.000748909
-0.000344454
0.00054418
-0.00374555
-0.000643087
0.00097897
-0.00324279
-0.000897212
0.00120169
-0.00262838
-0.00112621
0.00127997
-0.00197663
-0.00132953
0.00122129
-0.00132955
-0.00150502
0.00101431
-0.000681171
-0.00163118
0.000613742
3.12139e-06
-0.00164053
-5.64396e-05
0.000680212
-0.00146865
-0.00103242
0.00132028
-0.00103811
-0.00225087
0.00177968
-0.000327598
-0.00325113
0.00188227
0.000484463
-0.00350283
0.00157317
0.00121208
-0.00284299
0.00104364
0.0017276
-0.00181214
0.000475391
0.00198759
-0.000827368
-7.96071e-05
0.00199689
-2.61107e-05
-0.000603831
0.00172155
0.00074027
-0.00108278
0.00122708
0.00141326
-0.00143374
0.000616337
0.0019664
-0.00163922
0.00239653
-0.00173703
-0.000393379
0.00193967
-0.00201958
-0.0006174
0.00194519
-0.00163475
-0.000798435
0.00192862
-0.0014637
-0.000982379
0.00181365
-0.00130886
-0.00115226
0.00156094
-0.00115228
-0.00126956
0.00113022
-0.000952427
-0.00126868
0.000459285
-0.00066253
-0.00116974
-0.00044344
-0.000265053
-0.00100776
-0.00166882
0.000168127
-0.000796395
-0.00309169
0.00048197
-0.000539357
-0.00416714
0.000589454
-0.000293249
-0.004259
0.000406743
-2.42786e-05
-0.00341467
3.09623e-05
0.00025128
-0.00218509
-0.000445363
0.00044185
-0.000967945
-0.000953309
0.000415401
0.000151215
-0.00142843
0.000226239
0.00121051
-0.00166601
4.4049e-05
0.00202879
-0.00166507
-5.62771e-05
0.00263604
-0.00154588
0.00310731
-0.00151399
0.000353675
0.0019292
0.00164811
0.000632697
0.0019827
0.00163744
0.000773895
0.00203553
0.00140149
0.000780074
0.00199068
0.00105196
0.000665856
0.0017892
0.000665829
0.000453158
0.00136205