/*--------------------------------*- C++ -*----------------------------------*\
| =========                 |                                                 |
| \\      /  F ield         | OpenFOAM: The Open Source CFD Toolbox           |
|  \\    /   O peration     | Version:  1.7.1                                 |
|   \\  /    A nd           | Web:      www.OpenFOAM.com                      |
|    \\/     M anipulation  |                                                 |
\*---------------------------------------------------------------------------*/
FoamFile
{
    version     2.0;
    format      ascii;
    class       volVectorField;
    location    "600";
    object      U;
}
// * * * * * * * * * * * * * * * * * * * * * * * * * * * * * * * * * * * * * //

dimensions      [0 1 -1 0 0 0 0];

internalField   nonuniform List<vector> 
4000
(
(-0.00319816 0.00642181 -0.00319821)
(-0.0063116 0.0034662 -0.00191258)
(-0.00885272 0.000802621 -0.000537028)
(-0.0100441 -0.000833213 0.000403069)
(-0.0104848 -0.00152426 0.000920888)
(-0.0106704 -0.00200711 0.00128605)
(-0.0105795 -0.00255955 0.00157752)
(-0.0100001 -0.00316254 0.00179893)
(-0.00862821 -0.00380946 0.00196352)
(-0.00619752 -0.00451992 0.00207743)
(-0.00251984 -0.00523527 0.00203013)
(0.00235348 -0.00611654 0.00162468)
(0.00776905 -0.00568113 0.00129577)
(0.0113653 -0.00455927 0.00119397)
(0.0136416 -0.00350498 0.00116227)
(0.0147308 -0.00260695 0.00109274)
(0.014867 -0.00175362 0.000956622)
(0.0139991 -0.000815394 0.00078502)
(0.0111565 0.000797275 0.000509534)
(0.00708822 0.00444679 0.000367745)
(-0.00133876 0.0118703 -0.0013388)
(-0.00339861 0.00920451 -0.00119094)
(-0.00660054 0.0058584 -0.00109101)
(-0.0100386 0.00234152 -0.00105666)
(-0.0126073 -0.000683873 -0.000722696)
(-0.0128571 -0.00252083 -0.000252911)
(-0.0120912 -0.00386381 -3.96818e-05)
(-0.0105837 -0.0054541 0.00010143)
(-0.00837847 -0.00706788 0.000156956)
(-0.00552897 -0.00894402 0.000200645)
(-0.00203042 -0.0107446 0.000158578)
(0.00196377 -0.0111729 -6.73937e-05)
(0.00552663 -0.00900753 -0.000223712)
(0.00818159 -0.00655521 -0.00021666)
(0.0100348 -0.00454477 -0.00016903)
(0.0111482 -0.00297604 -0.000221491)
(0.011643 -0.00128885 -0.000349658)
(0.00973414 0.00188407 -0.000708788)
(0.00551252 0.00613851 -0.000763358)
(0.0028932 0.01082 -0.000256405)
(0.00111332 0.0151036 0.00111329)
(0.00142425 0.0133017 0.000772575)
(0.000422836 0.0111166 0.000305682)
(-0.00184934 0.00848858 -0.000239285)
(-0.00507092 0.00466204 -0.000808705)
(-0.0087586 -0.00125005 -0.00136592)
(-0.00958081 -0.00462491 -0.00133093)
(-0.00820768 -0.00725165 -0.00122417)
(-0.00610195 -0.00897216 -0.00128373)
(-0.00376439 -0.0111212 -0.0012659)
(-0.00129339 -0.0130293 -0.00123234)
(0.000754202 -0.0128828 -0.00124192)
(0.00227982 -0.0101369 -0.00120726)
(0.00344024 -0.00729692 -0.00106581)
(0.00418314 -0.00507696 -0.000941999)
(0.00453719 -0.00299526 -0.00104986)
(0.00243338 0.001651 -0.00111438)
(-0.000401838 0.00807521 -0.000754918)
(-0.00173286 0.0111483 -0.000297093)
(-0.00084391 0.0141883 0.000452451)
(0.00374914 0.00670552 0.00374912)
(0.00707346 0.00981289 0.00327298)
(0.00829817 0.0105033 0.00248841)
(0.00768809 0.009851 0.00170133)
(0.00609639 0.00796755 0.000962334)
(0.0046347 0.0050685 0.000353307)
(0.00115419 0.000676769 -0.000493019)
(-0.00198816 -0.00611877 -0.00137994)
(-0.00165617 -0.00809164 -0.00147236)
(-0.000967121 -0.010276 -0.0014101)
(-0.000298655 -0.011909 -0.00129873)
(-0.000381161 -0.0112799 -0.00118564)
(-0.000981225 -0.00831952 -0.000978979)
(-0.00204132 -0.00522242 -0.000701027)
(-0.00390305 -0.00226892 -0.000544286)
(-0.00721688 0.00200938 -0.00028368)
(-0.00887546 0.00609158 0.000143499)
(-0.00916159 0.00905263 0.000653945)
(-0.00818009 0.0100206 0.00141041)
(-0.00406586 0.00852064 0.0025469)
(0.00300157 -0.00921803 0.00300155)
(0.00793952 -0.00240157 0.00351561)
(0.0109929 0.00339813 0.00356978)
(0.0122563 0.00615729 0.00325392)
(0.011937 0.00627098 0.00285357)
(0.0110156 0.00507286 0.00246692)
(0.00984203 0.0031074 0.00195663)
(0.008002 -0.000212231 0.00142069)
(0.005371 -0.00413128 0.000847921)
(0.00346296 -0.0073921 0.000544982)
(0.00154499 -0.00913497 0.00044828)
(-0.000905671 -0.0083938 0.000466381)
(-0.00344606 -0.00523561 0.000871102)
(-0.00638042 -0.00175414 0.00153399)
(-0.00971966 0.00129453 0.00209036)
(-0.0121576 0.00347589 0.00221077)
(-0.0129613 0.00489978 0.00224455)
(-0.0122285 0.0049382 0.00250007)
(-0.0093915 0.00127478 0.0030416)
(-0.00238206 -0.00811638 0.00380184)
(0.00133734 -0.0169722 0.00133733)
(0.00469108 -0.0105347 0.0024647)
(0.00561805 -0.00525646 0.00324977)
(0.00720717 -0.00160492 0.00374512)
(0.00803528 -0.000227092 0.00395472)
(0.00830598 -0.000583376 0.00389923)
(0.00842603 -0.0021048 0.00363168)
(0.00835129 -0.00390491 0.003163)
(0.00764187 -0.00581846 0.00273798)
(0.00597839 -0.00761786 0.00251879)
(0.00333141 -0.00852296 0.00236096)
(0.000220499 -0.00824257 0.00213793)
(-0.0020718 -0.00629844 0.00243662)
(-0.0037226 -0.00416935 0.00313138)
(-0.00513582 -0.00249863 0.00378437)
(-0.00619158 -0.00163972 0.0041391)
(-0.00660782 -0.00178212 0.00406315)
(-0.00530488 -0.00379358 0.00372124)
(-0.00434858 -0.00841095 0.00328665)
(0.000244086 -0.017106 0.00322834)
(0.000185438 -0.0212374 0.000185426)
(0.00190306 -0.0155479 0.00150121)
(0.000490552 -0.0111177 0.00225333)
(0.000748947 -0.00903306 0.00259841)
(0.000916696 -0.00869469 0.00268075)
(0.00156782 -0.00937776 0.0024471)
(0.00239875 -0.0104471 0.00207199)
(0.00322904 -0.0116262 0.0016619)
(0.00398087 -0.012631 0.00143718)
(0.00376649 -0.0130105 0.00157982)
(0.00256756 -0.0125547 0.00165286)
(0.000994988 -0.0124563 0.00122426)
(0.000667684 -0.0119345 0.00119904)
(0.000855708 -0.011089 0.00165578)
(0.00106759 -0.0101442 0.00224853)
(0.00110802 -0.00950055 0.00272574)
(0.000853961 -0.00959039 0.002916)
(0.00116563 -0.0109522 0.00271977)
(-0.000188277 -0.0150333 0.00238103)
(0.00179515 -0.0224544 0.00230532)
(-0.0010001 -0.0211028 -0.00100011)
(-0.000846484 -0.0170091 0.000203971)
(-0.00372017 -0.0144872 0.000392754)
(-0.00439577 -0.0139552 0.000231311)
(-0.00466013 -0.0144762 -0.000167123)
(-0.00418044 -0.0156195 -0.000697603)
(-0.00314152 -0.0169239 -0.00126465)
(-0.00169363 -0.018058 -0.00175934)
(9.30157e-05 -0.0187346 -0.00194388)
(0.000939325 -0.018616 -0.00157803)
(0.00118564 -0.0178021 -0.0014027)
(0.00143314 -0.0179891 -0.00205316)
(0.00302852 -0.017977 -0.00219262)
(0.00470329 -0.0174961 -0.00181224)
(0.0059822 -0.0166714 -0.0011768)
(0.00660255 -0.0157917 -0.000493168)
(0.00641251 -0.0152493 0.000103318)
(0.00582072 -0.0155404 0.00042592)
(0.00308591 -0.0179599 0.000702545)
(0.003167 -0.0230828 0.000917123)
(-0.00287738 -0.016749 -0.00287739)
(-0.00438024 -0.01447 -0.00208813)
(-0.00816817 -0.0136455 -0.00259789)
(-0.00956901 -0.0142218 -0.00331038)
(-0.0100778 -0.0153351 -0.00416041)
(-0.00958705 -0.0166659 -0.00505787)
(-0.00823653 -0.0179548 -0.00591577)
(-0.00616858 -0.0190074 -0.00658505)
(-0.00360068 -0.0196448 -0.0068202)
(-0.00163809 -0.0197635 -0.00634147)
(0.000255189 -0.0193528 -0.00615127)
(0.00231026 -0.0194878 -0.00706556)
(0.00550684 -0.0194106 -0.00719861)
(0.00840954 -0.0188708 -0.00670308)
(0.0105501 -0.0179649 -0.00587116)
(0.0116571 -0.0168645 -0.00491106)
(0.0115686 -0.0158082 -0.00394874)
(0.0104113 -0.0151357 -0.00308457)
(0.00673488 -0.0158666 -0.00214541)
(0.00502977 -0.018754 -0.00135659)
(-0.00578552 -0.0112725 -0.00578554)
(-0.00926744 -0.00942857 -0.00642004)
(-0.013449 -0.00877044 -0.00800408)
(-0.0152462 -0.00898673 -0.00973896)
(-0.0159465 -0.0094219 -0.0116134)
(-0.0155131 -0.0098719 -0.0135267)
(-0.0139963 -0.0101931 -0.0153606)
(-0.0114284 -0.010273 -0.0169208)
(-0.00800631 -0.0100217 -0.0178778)
(-0.00476098 -0.00945105 -0.0178515)
(-0.000218643 -0.00856767 -0.0182334)
(0.00457563 -0.00921647 -0.0191219)
(0.00943874 -0.00988502 -0.0186264)
(0.0134173 -0.0102422 -0.0172696)
(0.0161141 -0.0102924 -0.0154642)
(0.0174163 -0.0101162 -0.0134566)
(0.0172857 -0.00984023 -0.0114054)
(0.0158204 -0.00966208 -0.00943264)
(0.0117418 -0.0103186 -0.0073659)
(0.00795018 -0.012538 -0.00516289)
(-0.00191256 0.0034662 -0.00631167)
(-0.00460126 0.00294676 -0.0046013)
(-0.00710372 0.00174393 -0.00221368)
(-0.00860779 0.000562429 -2.9116e-05)
(-0.00943517 -0.000333341 0.00161414)
(-0.00981233 -0.000928875 0.002672)
(-0.0100146 -0.00137975 0.00346254)
(-0.00980807 -0.00201768 0.00404816)
(-0.00872923 -0.00285789 0.00439862)
(-0.00636928 -0.00377261 0.00453774)
(-0.00257001 -0.00460057 0.00439176)
(0.00247603 -0.00562508 0.00372029)
(0.00793943 -0.00527537 0.00312199)
(0.0116072 -0.00406532 0.00286344)
(0.0138921 -0.00286083 0.00268793)
(0.0149383 -0.00189628 0.00243137)
(0.0150219 -0.00110378 0.002054)
(0.0139576 -0.000163655 0.00149198)
(0.0109468 0.00152064 0.000765704)
(0.00662944 0.00513625 0.000282091)
(-0.00119093 0.00920452 -0.00339868)
(-0.0033771 0.00800717 -0.00337713)
(-0.00582943 0.00593674 -0.00299449)
(-0.00840151 0.00359554 -0.00246382)
(-0.0106061 0.00142162 -0.00164889)
(-0.0116459 -0.000457718 -0.000481407)
(-0.0113326 -0.00184931 0.00031561)
(-0.0102789 -0.00360733 0.000816286)
(-0.00845967 -0.00579515 0.000966329)
(-0.00577442 -0.00817611 0.000935266)
(-0.00227764 -0.0103313 0.000716344)
(0.0018223 -0.0110747 0.000274494)
(0.00536 -0.00899933 -6.00739e-05)
(0.00801215 -0.0062656 -0.000177664)
(0.00985515 -0.00377082 -0.000272929)
(0.0109605 -0.00182566 -0.000559377)
(0.0110948 0.000215765 -0.00108869)
(0.00889706 0.00329855 -0.00174576)
(0.00508101 0.00707627 -0.00186685)
(0.00249615 0.0114775 -0.00111533)
(0.000772596 0.0133017 0.00142419)
(0.000616909 0.0120273 0.000616866)
(-4.4585e-05 0.0103346 -0.000247883)
(-0.00178213 0.00820925 -0.00108672)
(-0.00431469 0.0052567 -0.00179599)
(-0.00697954 0.00106908 -0.0024074)
(-0.00846951 -0.00252125 -0.00234464)
(-0.00746918 -0.00539542 -0.00203434)
(-0.00587564 -0.00822219 -0.00216092)
(-0.00385823 -0.0111713 -0.00225162)
(-0.00160811 -0.0136629 -0.0022848)
(0.000315457 -0.0139747 -0.00223475)
(0.00166182 -0.0112289 -0.00213677)
(0.00266387 -0.00783863 -0.00198329)
(0.0033549 -0.00467907 -0.00192763)
(0.00382099 -0.00168998 -0.00220824)
(0.0013959 0.0036081 -0.00214217)
(-0.000673898 0.00830792 -0.00154655)
(-0.00184915 0.0113999 -0.000793943)
(-0.00111816 0.0146444 0.000384488)
(0.003273 0.00981289 0.00707341)
(0.0059381 0.0104876 0.00593806)
(0.00739382 0.010408 0.00442756)
(0.00727014 0.00959421 0.00298491)
(0.00617296 0.00783202 0.00166088)
(0.00471323 0.00517404 0.000393296)
(0.00251466 0.00138501 -0.00099846)
(-0.000560244 -0.00476472 -0.00250075)
(-0.000981038 -0.00853398 -0.00292045)
(-0.000839614 -0.011706 -0.00292938)
(-0.00058174 -0.0140324 -0.0026873)
(-0.00103619 -0.0137639 -0.00220396)
(-0.00214308 -0.0105773 -0.00170123)
(-0.00363122 -0.00667788 -0.00126526)
(-0.00556508 -0.002475 -0.000945539)
(-0.00845831 0.00248373 -0.000270769)
(-0.00953526 0.00640309 0.000651553)
(-0.00972742 0.00901118 0.00175003)
(-0.00838085 0.010191 0.00307677)
(-0.00455769 0.00988758 0.00483452)
(0.00351562 -0.00240158 0.00793947)
(0.00816203 0.0018574 0.00816199)
(0.0113563 0.00515673 0.00758819)
(0.0127756 0.00670078 0.0065981)
(0.0127994 0.00654979 0.00555254)
(0.0120734 0.00521304 0.00451317)
(0.0110016 0.00299711 0.00328375)
(0.00909009 -0.000789814 0.00168636)
(0.0060647 -0.00540452 0.000539588)
(0.00353055 -0.0093273 0.000114063)
(0.00122948 -0.0116681 0.000249022)
(-0.00179767 -0.0110229 0.000888665)
(-0.00518095 -0.00744751 0.00176183)
(-0.00880044 -0.00336002 0.00267507)
(-0.0122208 0.000347924 0.00348909)
(-0.0142185 0.00320772 0.00415774)
(-0.0146497 0.0048858 0.00473416)
(-0.0136459 0.00496601 0.00554252)
(-0.01046 0.00201486 0.00663011)
(-0.0038196 -0.00549171 0.00789382)
(0.00246472 -0.0105347 0.00469103)
(0.00675738 -0.00622865 0.00675734)
(0.00901029 -0.00209596 0.00799696)
(0.0109895 0.00136339 0.00843311)
(0.0119648 0.00297451 0.00837543)
(0.0121687 0.00296432 0.00801995)
(0.0120218 0.00183411 0.00747369)
(0.0114316 -0.000181631 0.00687114)
(0.00980628 -0.00287683 0.0061299)
(0.0070487 -0.00576882 0.00555003)
(0.00347605 -0.00772296 0.0052436)
(-0.000872239 -0.00743213 0.00544531)
(-0.00479825 -0.00458689 0.00635227)
(-0.00786267 -0.00161066 0.00741029)
(-0.0100146 0.000500112 0.00819473)
(-0.0111783 0.00140953 0.00845556)
(-0.0111382 0.000926199 0.00848016)
(-0.00943453 -0.00156223 0.00838588)
(-0.00716261 -0.00645008 0.00787288)
(-0.00174835 -0.0141092 0.00697548)
(0.00150123 -0.0155479 0.00190301)
(0.00519639 -0.0109792 0.00519635)
(0.00557973 -0.00685056 0.00733646)
(0.00641591 -0.00384828 0.0085267)
(0.00694012 -0.0023555 0.00911263)
(0.00750572 -0.00210278 0.00918726)
(0.00787104 -0.00271663 0.00897958)
(0.00796787 -0.00362573 0.0086298)
(0.00750372 -0.00482646 0.00828862)
(0.00601826 -0.00588638 0.00811383)
(0.00344765 -0.00627446 0.00796921)
(0.000104228 -0.00607522 0.00777994)
(-0.00253691 -0.00489961 0.00820706)
(-0.00410084 -0.00369446 0.00899742)
(-0.00498823 -0.00285639 0.00963747)
(-0.00538257 -0.00286946 0.0098667)
(-0.00542261 -0.00399846 0.00959056)
(-0.0046241 -0.0068062 0.00874935)
(-0.00458263 -0.011877 0.00722313)
(-0.000573969 -0.019362 0.00513723)
(0.000203981 -0.0170091 -0.000846525)
(0.00323437 -0.0128584 0.00323433)
(0.00190834 -0.00951522 0.00537698)
(0.00194807 -0.00743459 0.00628295)
(0.00196466 -0.00656788 0.00646752)
(0.00240049 -0.00652822 0.00620455)
(0.00302095 -0.00686903 0.00574834)
(0.0035923 -0.00722733 0.0053292)
(0.00392012 -0.00743062 0.00525136)
(0.00339411 -0.00716585 0.0057133)
(0.00200572 -0.00645832 0.00605445)
(0.000239999 -0.00656671 0.00544084)
(-0.000514141 -0.0066951 0.00523262)
(-0.000657822 -0.00677125 0.00569278)
(-0.000522014 -0.00682644 0.00642027)
(-0.000427218 -0.00712209 0.00702433)
(-0.000694851 -0.00804175 0.00717964)
(-0.000663536 -0.0101236 0.00662512)
(-0.00240096 -0.0142133 0.00506256)
(0.000541866 -0.0203455 0.00226283)
(-0.00208812 -0.01447 -0.00438028)
(-0.000821829 -0.0113434 -0.000821864)
(-0.00379327 -0.00962276 0.00024932)
(-0.00456956 -0.00926937 0.000164862)
(-0.00494976 -0.00955261 -0.000521085)
(-0.00457515 -0.0101561 -0.00147272)
(-0.00361645 -0.01084 -0.00245319)
(-0.00225107 -0.0114289 -0.00316874)
(-0.000590931 -0.0117833 -0.00317734)
(0.000456004 -0.011644 -0.00201361)
(0.000824569 -0.0113138 -0.00111442)
(0.0010601 -0.0113274 -0.00264463)
(0.00264475 -0.0113589 -0.00328902)
(0.00424668 -0.011172 -0.00286347)
(0.00549453 -0.010834 -0.00186748)
(0.00607291 -0.0104746 -0.000755473)
(0.00575204 -0.010315 0.000152021)
(0.00494748 -0.0106677 0.000485225)
(0.00172116 -0.0126795 -2.76361e-05)
(0.00266106 -0.0166719 -0.00245762)
(-0.00642003 -0.00942857 -0.00926748)
(-0.00948178 -0.006757 -0.00948179)
(-0.0137956 -0.00529633 -0.0114871)
(-0.0156445 -0.00477137 -0.0140906)
(-0.016516 -0.00446736 -0.0170467)
(-0.0163266 -0.00417642 -0.0201303)
(-0.0151178 -0.0037589 -0.0231197)
(-0.0128213 -0.00311034 -0.0257095)
(-0.00936606 -0.00214359 -0.027394)
(-0.00553155 -0.000810026 -0.0276761)
(0.00084138 0.000565199 -0.0282304)
(0.00645034 -0.000595873 -0.0291149)
(0.0113069 -0.00184474 -0.0281537)
(0.0148919 -0.00290446 -0.0259141)
(0.017082 -0.00373872 -0.0229898)
(0.0178924 -0.00439372 -0.0197691)
(0.017319 -0.00498294 -0.0165361)
(0.0155284 -0.00569127 -0.0135487)
(0.0109955 -0.00740874 -0.0108629)
(0.00735331 -0.0107009 -0.00910031)
(-0.000537019 0.000802616 -0.00885282)
(-0.00221366 0.00174393 -0.00710378)
(-0.00435388 0.00179699 -0.00435392)
(-0.00601619 0.00136513 -0.00150604)
(-0.00727493 0.000694864 0.001038)
(-0.00807725 6.82308e-06 0.00305534)
(-0.00866797 -0.000532035 0.00459928)
(-0.00890597 -0.00116578 0.00579962)
(-0.00828413 -0.00209625 0.00665409)
(-0.0062652 -0.00316659 0.00707638)
(-0.00260396 -0.00412063 0.00696966)
(0.00237214 -0.00523185 0.0060692)
(0.00777319 -0.00494115 0.005116)
(0.0113865 -0.00368932 0.00449452)
(0.0135603 -0.00241222 0.00393328)
(0.0144562 -0.00141753 0.0032885)
(0.0143442 -0.000589678 0.00251637)
(0.0129832 0.000375701 0.00140405)
(0.00991427 0.00197553 0.000126166)
(0.00566381 0.00499585 -0.000894023)
(-0.001091 0.00585841 -0.00660063)
(-0.00299447 0.00593674 -0.00582948)
(-0.00488947 0.00524873 -0.0048895)
(-0.00680329 0.00406667 -0.00384804)
(-0.00851154 0.0026825 -0.00264089)
(-0.00962422 0.00126351 -0.00124494)
(-0.00989642 -0.000195851 0.000104105)
(-0.00931859 -0.00206279 0.00115489)
(-0.00798592 -0.00455262 0.00176671)
(-0.00568013 -0.00734293 0.00196659)
(-0.00241586 -0.00984918 0.00178205)
(0.00151071 -0.0108159 0.00123302)
(0.00493296 -0.00881725 0.000650124)
(0.0074945 -0.00590674 0.000159645)
(0.00922614 -0.00313809 -0.000407442)
(0.0101707 -0.000953473 -0.00117809)
(0.00982711 0.00129795 -0.00220066)
(0.00781021 0.00397725 -0.00290916)
(0.00457611 0.00713877 -0.00301501)
(0.00209215 0.0108604 -0.00227141)
(0.000305698 0.0111166 0.000422741)
(-0.000247843 0.0103346 -4.46564e-05)
(-0.000829139 0.00924686 -0.000829199)
(-0.00220503 0.00771426 -0.00164458)
(-0.00407673 0.00539142 -0.00237199)
(-0.00603645 0.00237074 -0.0029082)
(-0.00727492 -0.000671857 -0.00290535)
(-0.00671658 -0.0036006 -0.00234686)
(-0.00549423 -0.0069784 -0.00218606)
(-0.00383233 -0.0106109 -0.00217015)
(-0.00186347 -0.0136932 -0.00216564)
(-0.000135349 -0.0143604 -0.00210286)
(0.0011216 -0.011645 -0.00207542)
(0.00207326 -0.00787006 -0.00216526)
(0.00277933 -0.00417033 -0.00253185)
(0.00314107 -0.00074244 -0.00316982)
(0.00122907 0.00410093 -0.00309151)
(-0.000474062 0.00815513 -0.00225303)
(-0.00138482 0.0111643 -0.00119542)
(-0.00100929 0.0143163 7.11426e-05)
(0.00248843 0.0105033 0.0082981)
(0.00442759 0.010408 0.00739377)
(0.00584511 0.0100752 0.00584507)
(0.00600263 0.00928423 0.00417863)
(0.00531114 0.007702 0.00255305)
(0.00408483 0.00534298 0.000938659)
(0.00240492 0.00190736 -0.000739795)
(-3.16354e-05 -0.00338991 -0.00238926)
(-0.000669164 -0.00792689 -0.00300188)
(-0.00087052 -0.0119765 -0.00316273)
(-0.000936684 -0.0150653 -0.00292877)
(-0.00160109 -0.0151276 -0.00231983)
(-0.00280904 -0.0118003 -0.00165217)
(-0.00429932 -0.00729628 -0.00114381)
(-0.00599297 -0.00237026 -0.000810536)
(-0.00833727 0.00285859 6.63691e-05)
(-0.00915943 0.00668504 0.00130945)
(-0.0091145 0.00925006 0.00281449)
(-0.00752709 0.0107814 0.00453267)
(-0.00427498 0.0116135 0.00635365)
(0.0035698 0.00339811 0.0109928)
(0.00758822 0.00515673 0.0113562)
(0.0106708 0.00655805 0.0106707)
(0.0122152 0.00725283 0.00940222)
(0.0125233 0.00686927 0.00793546)
(0.0120209 0.00549083 0.00637306)
(0.0110737 0.00314741 0.00463604)
(0.0091972 -0.000948828 0.00235999)
(0.00619735 -0.0059044 0.000583281)
(0.00335495 -0.0104747 -0.00029036)
(0.000752643 -0.0135904 -0.000246669)
(-0.00255253 -0.013187 0.000640188)
(-0.00615302 -0.00931772 0.00194099)
(-0.00994514 -0.00457751 0.00328489)
(-0.0133013 -0.00011004 0.00455564)
(-0.0150674 0.00339579 0.00580317)
(-0.0152132 0.00537235 0.00689516)
(-0.0139393 0.00587415 0.00817732)
(-0.0105543 0.0043318 0.00952655)
(-0.0046447 -0.000507144 0.0106143)
(0.00324978 -0.00525647 0.00561796)
(0.007997 -0.00209597 0.00901023)
(0.011009 0.00082155 0.011009)
(0.013065 0.00316875 0.011616)
(0.0139863 0.00425658 0.0113603)
(0.0140837 0.00408679 0.0105991)
(0.0136462 0.00284292 0.00952089)
(0.0127246 0.000568157 0.00825377)
(0.0105408 -0.00289377 0.00670511)
(0.00712785 -0.00673386 0.00546802)
(0.00302641 -0.00948927 0.00491762)
(-0.00220133 -0.00913681 0.00543525)
(-0.00683538 -0.00557889 0.00702823)
(-0.0107002 -0.00166763 0.00883537)
(-0.0132527 0.0011774 0.0102782)
(-0.0143788 0.002467 0.0109483)
(-0.0141465 0.00229942 0.0112621)
(-0.0121503 0.000316384 0.0112314)
(-0.00886758 -0.0037045 0.0102676)
(-0.00308952 -0.00945717 0.00814381)
(0.00225335 -0.0111177 0.00049047)
(0.0073365 -0.00685056 0.00557967)
(0.00906284 -0.00355849 0.00906279)
(0.0104813 -0.000831896 0.0110914)
(0.0113637 0.000822623 0.0120031)
(0.0118149 0.00119357 0.0120432)
(0.0118089 0.000500295 0.011543)
(0.0111877 -0.000815841 0.0108062)
(0.00978587 -0.00262659 0.00990038)
(0.00725242 -0.00448559 0.00917025)
(0.00356906 -0.00571302 0.00868908)
(-0.0012834 -0.00545881 0.00856868)
(-0.00524586 -0.0035303 0.00972467)
(-0.00799437 -0.00152811 0.0113462)
(-0.00964931 -0.00018545 0.0125153)
(-0.0103262 -3.49954e-05 0.0128889)
(-0.0100162 -0.00129048 0.0124435)
(-0.00870928 -0.00414434 0.0109315)
(-0.00722425 -0.00862595 0.00800769)
(-0.00194343 -0.0148296 0.00363694)
(0.000392764 -0.0144872 -0.00372024)
(0.00537702 -0.00951522 0.00190828)
(0.00554487 -0.00614916 0.00554482)
(0.00634164 -0.0035259 0.00741923)
(0.00679665 -0.00188131 0.0079951)
(0.00722531 -0.00109241 0.00767276)
(0.00749679 -0.000906412 0.00685784)
(0.00741376 -0.00103902 0.00599919)
(0.00672701 -0.00135606 0.00559558)
(0.00502426 -0.00159843 0.00599234)
(0.00222524 -0.00153669 0.00633786)
(-0.00127798 -0.00146204 0.00548173)
(-0.00365569 -0.00112161 0.00545632)
(-0.00503669 -0.000996699 0.00639578)
(-0.0056282 -0.0012586 0.00768645)
(-0.00578256 -0.00215298 0.00859291)
(-0.00571266 -0.00391886 0.00855975)
(-0.00503118 -0.00685641 0.00714242)
(-0.00532954 -0.0110496 0.003786)
(-0.000396771 -0.0168909 -0.001652)
(-0.00259788 -0.0136455 -0.00816822)
(0.000249354 -0.00962276 -0.00379333)
(-0.00153853 -0.00728422 -0.00153859)
(-0.00116732 -0.00621865 -0.000896758)
(-0.00101627 -0.00587948 -0.00142884)
(-0.000480903 -0.00594878 -0.00265434)
(0.000295347 -0.00622753 -0.00409349)
(0.00106946 -0.00654892 -0.00512451)
(0.00164489 -0.0067175 -0.00521619)
(0.00165346 -0.00636331 -0.00385457)
(0.000868817 -0.00618486 -0.00254879)
(-0.000120909 -0.00631769 -0.00452056)
(-7.24855e-06 -0.00656266 -0.00538355)
(0.000448804 -0.00656416 -0.00477022)
(0.00107181 -0.00653398 -0.0033472)
(0.00150551 -0.00662947 -0.00186639)
(0.00149291 -0.00702829 -0.000969566)
(0.00181331 -0.00811065 -0.00140851)
(-0.000320802 -0.0107181 -0.00337465)
(0.00269098 -0.0153539 -0.0073518)
(-0.00800409 -0.00877044 -0.013449)
(-0.0114871 -0.00529634 -0.0137956)
(-0.0161336 -0.00330569 -0.0161336)
(-0.018083 -0.00236277 -0.0194439)
(-0.0190083 -0.00164344 -0.0233441)
(-0.0188416 -0.000927358 -0.0274897)
(-0.0176188 -5.98187e-05 -0.0315649)
(-0.0151768 0.00109188 -0.0351721)
(-0.0112473 0.00263358 -0.0376339)
(-0.00655218 0.00464037 -0.038287)
(0.00169729 0.00641416 -0.0389681)
(0.00848456 0.00466267 -0.0397879)
(0.0139348 0.00288796 -0.0383037)
(0.0176661 0.00131794 -0.0351829)
(0.0197951 -4.71007e-06 -0.0312053)
(0.0204607 -0.00113724 -0.0268853)
(0.0197068 -0.0022134 -0.0226211)
(0.0177072 -0.00339168 -0.0188062)
(0.0127346 -0.00569501 -0.0157249)
(0.00870603 -0.00968701 -0.0141298)
(0.000403071 -0.000833213 -0.0100442)
(-2.90988e-05 0.00056243 -0.00860788)
(-0.001506 0.00136513 -0.00601626)
(-0.0030228 0.00157423 -0.00302287)
(-0.00445651 0.00133844 -7.32871e-05)
(-0.00575492 0.000807639 0.00262821)
(-0.00672886 0.000246426 0.00496505)
(-0.00743249 -0.000420865 0.0069329)
(-0.00735757 -0.00143121 0.00842065)
(-0.00588445 -0.00266525 0.00928243)
(-0.00259131 -0.00377033 0.0093345)
(0.00206525 -0.00493754 0.0082814)
(0.007265 -0.00470349 0.006949)
(0.0107187 -0.00343496 0.00588872)
(0.0127207 -0.00211028 0.00487181)
(0.0134195 -0.0010646 0.00380503)
(0.013023 -0.000191409 0.00258308)
(0.0114125 0.000756475 0.00104677)
(0.00833781 0.00203986 -0.000629262)
(0.00444307 0.00393981 -0.00201845)
(-0.00105665 0.00234152 -0.0100387)
(-0.00246381 0.00359554 -0.00840157)
(-0.00384803 0.00406667 -0.00680333)
(-0.0051733 0.00394931 -0.00517332)
(-0.00637206 0.00338994 -0.00349381)
(-0.00731915 0.00251051 -0.00174265)
(-0.00786678 0.00126706 -2.94494e-05)
(-0.0078092 -0.000643573 0.00147473)
(-0.00701033 -0.00337517 0.00260123)
(-0.00524977 -0.00654863 0.00316894)
(-0.00245316 -0.00936945 0.0031531)
(0.00101883 -0.0104734 0.00254608)
(0.00418382 -0.00856972 0.00163002)
(0.00656882 -0.00558962 0.00064682)
(0.00813719 -0.00269362 -0.000465011)
(0.0088568 -0.000344862 -0.00169821)
(0.00833661 0.00182496 -0.00303282)
(0.00659094 0.00405295 -0.0039323)
(0.00399458 0.00642552 -0.0042208)
(0.00170112 0.00895194 -0.00380272)
(-0.000239272 0.00848858 -0.00184946)
(-0.00108668 0.00820925 -0.00178222)
(-0.00164453 0.00771426 -0.0022051)
(-0.00265875 0.00673017 -0.0026588)
(-0.00390826 0.0051028 -0.00303631)
(-0.00514783 0.00307834 -0.00321025)
(-0.00590497 0.000747169 -0.00296653)
(-0.0056367 -0.00206643 -0.0022212)
(-0.00479132 -0.00574716 -0.001654)
(-0.00356285 -0.00992418 -0.0013418)
(-0.0020357 -0.0134289 -0.00116232)
(-0.000668869 -0.0142595 -0.00113418)
(0.00044519 -0.0116252 -0.00141414)
(0.00137836 -0.00770098 -0.00200503)
(0.00213232 -0.00382329 -0.00294949)
(0.00247576 -0.000376632 -0.00402719)
(0.00125553 0.00366766 -0.00418757)
(-3.82088e-05 0.00730626 -0.00345472)
(-0.000682333 0.0101373 -0.00241013)
(-0.000686692 0.0128139 -0.00135321)
(0.00170135 0.00985099 0.007688)
(0.00298494 0.0095942 0.00727008)
(0.00417867 0.00928423 0.00600258)
(0.00443466 0.00857793 0.0044346)
(0.00403149 0.00722966 0.00280143)
(0.0030951 0.00517736 0.00111008)
(0.00171893 0.00192996 -0.000559456)
(0.000199604 -0.00254051 -0.0018401)
(-0.000420334 -0.00722212 -0.00224876)
(-0.000848462 -0.0118674 -0.00230245)
(-0.00127309 -0.0154216 -0.0019778)
(-0.00217823 -0.0155856 -0.00140869)
(-0.00333106 -0.0122685 -0.000973058)
(-0.00452222 -0.0076167 -0.000817518)
(-0.00568251 -0.0026189 -0.000837498)
(-0.00733472 0.0025156 -0.000174167)
(-0.00800655 0.00644428 0.00117714)
(-0.00772526 0.00912925 0.00279882)
(-0.00606578 0.0110102 0.00452861)
(-0.00350042 0.0124152 0.0060114)
(0.00325393 0.00615728 0.0122562)
(0.00659813 0.00670078 0.0127756)
(0.00940225 0.00725282 0.0122151)
(0.0109379 0.00743995 0.0109378)
(0.0114468 0.00689642 0.00932579)
(0.0111908 0.00550988 0.0075441)
(0.0104275 0.00305706 0.00563799)
(0.00863221 -0.00111523 0.00326386)
(0.00590629 -0.00615601 0.00148501)
(0.00308178 -0.0110944 0.000534984)
(0.000194642 -0.0146627 0.000562391)
(-0.00334254 -0.0142742 0.00145564)
(-0.00681448 -0.0103427 0.00265739)
(-0.0102578 -0.00534053 0.00390846)
(-0.0131955 -0.00043848 0.00521649)
(-0.0147216 0.00357303 0.00673251)
(-0.0145695 0.00596658 0.00808002)
(-0.0130679 0.00710668 0.00960273)
(-0.00970784 0.00696665 0.0110494)
(-0.00483589 0.00524666 0.0120345)
(0.00374513 -0.00160493 0.00720705)
(0.00843314 0.00136338 0.0109894)
(0.011616 0.00316874 0.013065)
(0.0136358 0.00447197 0.0136358)
(0.0146031 0.00499188 0.0132408)
(0.0147506 0.00454538 0.0122543)
(0.014246 0.00310199 0.0109073)
(0.0131088 0.000537984 0.00932079)
(0.0106013 -0.0034473 0.00738512)
(0.00682 -0.00786754 0.00579603)
(0.00226245 -0.0110566 0.00519263)
(-0.00359775 -0.0105156 0.00595188)
(-0.0084773 -0.00658826 0.00773417)
(-0.0125574 -0.00208476 0.00976284)
(-0.0151042 0.00135163 0.0114876)
(-0.0160264 0.00316405 0.0124063)
(-0.0155661 0.00363097 0.0129344)
(-0.0134532 0.00277375 0.0129709)
(-0.00965646 0.000361787 0.011819)
(-0.00381409 -0.00410745 0.00892446)
(0.00259842 -0.00903307 0.000748832)
(0.00852673 -0.00384829 0.00641584)
(0.0110914 -0.000831902 0.0104812)
(0.0129312 0.0013536 0.0129312)
(0.0138987 0.00250101 0.0139181)
(0.0142658 0.00255993 0.0138866)
(0.0140978 0.00161403 0.0132363)
(0.0132067 -9.86792e-05 0.0123427)
(0.0111958 -0.00245519 0.011167)
(0.00780423 -0.00485352 0.00998057)
(0.00315555 -0.00657366 0.00932256)
(-0.00311084 -0.00620256 0.00954705)
(-0.00775687 -0.00385361 0.0112064)
(-0.0112262 -0.00129347 0.0132419)
(-0.0132065 0.000661956 0.014546)
(-0.013838 0.00136958 0.0148836)
(-0.0132793 0.000766661 0.0142838)
(-0.011406 -0.00130801 0.012282)
(-0.00882262 -0.00472901 0.00847756)
(-0.00259277 -0.0104353 0.00279523)
(0.000231316 -0.0139553 -0.00439585)
(0.00628298 -0.00743459 0.00194799)
(0.00741927 -0.0035259 0.00634157)
(0.00893593 -0.000410399 0.00893589)
(0.00993336 0.0016046 0.0101247)
(0.0104905 0.00252352 0.0101033)
(0.0105459 0.00259337 0.00929917)
(0.010014 0.00218964 0.0082534)
(0.00869267 0.00157229 0.00753314)
(0.00611582 0.001055 0.0076326)
(0.00192341 0.000845753 0.00784137)
(-0.00326708 0.000810345 0.00712727)
(-0.00662509 0.00140696 0.00743671)
(-0.00859933 0.00207439 0.0086311)
(-0.00946231 0.00226184 0.0100547)
(-0.00958551 0.00155039 0.0107952)
(-0.00900792 -0.000360038 0.0102052)
(-0.00766991 -0.00369593 0.00792227)
(-0.00682292 -0.00795074 0.00345948)
(-0.000392787 -0.014946 -0.00304883)
(-0.00331037 -0.0142218 -0.00956907)
(0.000164885 -0.00926937 -0.00456964)
(-0.000896705 -0.00621865 -0.00116741)
(0.000318343 -0.00447952 0.000318261)
(0.000939592 -0.00360788 8.75995e-05)
(0.00167651 -0.00333347 -0.00126604)
(0.00240046 -0.00344203 -0.0028593)
(0.0028931 -0.00371205 -0.00403371)
(0.00275997 -0.00367304 -0.00466471)
(0.00193722 -0.00256677 -0.00459059)
(0.000641582 -0.00192955 -0.00430293)
(-0.000956421 -0.00306732 -0.0050993)
(-0.00175878 -0.00395719 -0.00470443)
(-0.00193741 -0.00407902 -0.00364493)
(-0.00160432 -0.0040987 -0.00196331)
(-0.00112437 -0.0043428 -0.000213217)
(-0.00085545 -0.00503642 0.000580743)
(0.000405647 -0.0066936 -0.000806659)
(-0.000825916 -0.00988693 -0.00434187)
(0.00326949 -0.0153944 -0.0091912)
(-0.00973897 -0.00898673 -0.0152462)
(-0.0140907 -0.00477138 -0.0156445)
(-0.019444 -0.00236277 -0.018083)
(-0.021739 -0.00111841 -0.0217389)
(-0.0227934 -5.43196e-05 -0.0261711)
(-0.0226211 0.00103986 -0.0309796)
(-0.0212861 0.00230698 -0.0358281)
(-0.0185415 0.00388682 -0.0403102)
(-0.0138902 0.00589892 -0.0435621)
(-0.00799228 0.00839901 -0.0445646)
(0.00263599 0.0104993 -0.0453085)
(0.0110317 0.00820041 -0.0460683)
(0.0174426 0.00603005 -0.0440239)
(0.0215618 0.00406806 -0.0400537)
(0.0237751 0.00235365 -0.0352418)
(0.0243683 0.000819909 -0.030165)
(0.0234222 -0.000663604 -0.0252631)
(0.0210421 -0.0021729 -0.0209973)
(0.0153384 -0.00493277 -0.0177756)
(0.0104737 -0.00963809 -0.0162317)
(0.00092089 -0.00152426 -0.010485)
(0.00161416 -0.000333342 -0.00943527)
(0.00103804 0.000694861 -0.00727503)
(-7.3215e-05 0.00133844 -0.00445662)
(-0.00140688 0.00153766 -0.00140699)
(-0.0029067 0.00134812 0.00171267)
(-0.00419505 0.000912578 0.00471029)
(-0.00532116 0.000233607 0.00757685)
(-0.00585858 -0.000863034 0.00996846)