/*--------------------------------*- C++ -*----------------------------------*\
| =========                 |                                                 |
| \\      /  F ield         | OpenFOAM: The Open Source CFD Toolbox           |
|  \\    /   O peration     | Version:  1.7.1                                 |
|   \\  /    A nd           | Web:      www.OpenFOAM.com                      |
|    \\/     M anipulation  |                                                 |
\*---------------------------------------------------------------------------*/
FoamFile
{
    version     2.0;
    format      ascii;
    class       volScalarField;
    location    "0.4";
    object      p;
}
// * * * * * * * * * * * * * * * * * * * * * * * * * * * * * * * * * * * * * //

dimensions      [0 2 -2 0 0 0 0];

internalField   nonuniform List<scalar> 
400
(
6.04358e-06
-0.00581944
-0.0129567
-0.0184088
-0.0204262
-0.0182325
-0.011768
-0.00147793
0.0118428
0.0271543
0.0432492
0.0588275
0.072583
0.0833127
0.0900571
0.0922713
0.0900304
0.0842486
0.0768856
0.0710723
0.00578607
-0.000212607
-0.00579822
-0.00953679
-0.0105932
-0.00842706
-0.00296437
0.0054796
0.0163082
0.0287168
0.0417547
0.0543907
0.065591
0.0744145
0.0801249
0.0823205
0.0810822
0.0770599
0.0712794
0.0653232
0.0133403
0.005039
-0.000989841
-0.00441758
-0.00526743
-0.00325854
0.00160762
0.00903278
0.0185072
0.0293543
0.0407704
0.0518745
0.0617733
0.0696411
0.0748118
0.076883
0.0758467
0.0720912
0.065811
0.0575411
0.0201442
0.008701
0.00123111
-0.00266316
-0.00371672
-0.00188
0.00273646
0.00978964
0.0187854
0.0291
0.039997
0.050659
0.0602379
0.0679209
0.0730081
0.0750065
0.073771
0.0694615
0.0616086
0.0501085
0.0245067
0.00977803
0.000594877
-0.00398166
-0.00529689
-0.003502
0.00117997
0.00833967
0.017467
0.0279541
0.03909
0.050075
0.060054
0.0681702
0.0736315
0.0758029
0.0743742
0.0692952
0.0595313
0.0445433
0.0251826
0.00715498
-0.00379693
-0.009052
-0.0105068
-0.00849457
-0.00335142
0.00443472
0.0143185
0.0256841
0.0378189
0.0499084
0.0610533
0.0703084
0.0767399
0.0795222
0.0781443
0.0723391
0.0605451
0.0418963
0.0210983
-0.000257271
-0.0129293
-0.018704
-0.0200244
-0.0174084
-0.0113128
-0.00231413
0.00899591
0.0219816
0.035915
0.0499497
0.0631175
0.0743506
0.0825273
0.0865749
0.0857262
0.0794527
0.0656263
0.043078
0.0111478
-0.0136129
-0.0278696
-0.0338488
-0.034598
-0.0308518
-0.0232071
-0.0123394
0.00111066
0.0164896
0.0330582
0.0499392
0.0660889
0.0802954
0.0912063
0.0974356
0.097876
0.0916418
0.0759022
0.0491227
-0.00596186
-0.0342609
-0.0498643
-0.0555428
-0.0550843
-0.0495087
-0.0395876
-0.0261073
-0.00975101
0.00882908
0.028907
0.0495994
0.0698033
0.0881603
0.103053
0.112707
0.115556
0.110198
0.0928402
0.0614176
-0.0318514
-0.0638703
-0.080411
-0.0850011
-0.082414
-0.0740722
-0.0609747
-0.0440304
-0.0239452
-0.00133052
0.0231519
0.0486673
0.0741017
0.0979783
0.118402
0.133132
0.139994
0.136824
0.118447
0.0819398
-0.0686611
-0.104597
-0.121338
-0.123584
-0.117509
-0.10512
-0.0877119
-0.066319
-0.0416305
-0.014149
0.0156122
0.0469598
0.0788622
0.1098
0.13763
0.159592
0.172733
0.173784
0.155526
0.113577
-0.119395
-0.15935
-0.174908
-0.172751
-0.161141
-0.142922
-0.119752
-0.0927703
-0.0625706
-0.0294408
0.00637998
0.0444803
0.0840619
0.12371
0.161143
0.193092
0.215674
0.224083
0.208056
0.160638
-0.188621
-0.232235
-0.243932
-0.233941
-0.213688
-0.187148
-0.156365
-0.122494
-0.0858908
-0.046465
-0.00400734
0.0415459
0.0898491
0.139836
0.189326
0.234696
0.271081
0.29167
0.281749
0.229781
-0.283967
-0.329297
-0.331824
-0.308273
-0.274702
-0.236433
-0.195757
-0.153603
-0.109833
-0.0637377
-0.0144304
0.0388708
0.0965616
0.158284
0.222381
0.285295
0.341404
0.381581
0.38492
0.33184
-0.41931
-0.459663
-0.442343
-0.395785
-0.342122
-0.287732
-0.234608
-0.182922
-0.131602
-0.0789771
-0.0232061
0.0374831
0.104561
0.178845
0.259868
0.344977
0.428623
0.499707
0.529681
0.485397
-0.620523
-0.636736
-0.578669
-0.494185
-0.411233
-0.335651
-0.267773
-0.20597
-0.147528
-0.0893748
-0.0284178
0.0383565
0.113815
0.200479
0.299983
0.412032
0.533037
0.651782
0.732778
0.722402
-0.935915
-0.878507
-0.741734
-0.597941
-0.474385
-0.372652
-0.288861
-0.217755
-0.153945
-0.0924555
-0.0287088
0.0417042
0.123272
0.220726
0.338934
0.482162
0.652004
0.841349
1.01528
1.09751
-1.47641
-1.20662
-0.920496
-0.69138
-0.517298
-0.387536
-0.290053
-0.213329
-0.148116
-0.0872072
-0.0245691
0.045466
0.128946
0.233079
0.367111
0.542686
0.771301
1.05933
1.40329
1.73015
-2.53964
-1.63054
-1.04443
-0.710952
-0.495743
-0.352086
-0.254523
-0.183576
-0.126161
-0.0735869
-0.0192606
0.0427954
0.119221
0.218791
0.35482
0.547992
0.826401
1.23659
1.91168
2.9242
-4.36666
-2.04463
-0.973535
-0.563174
-0.35784
-0.24014
-0.170113
-0.123776
-0.0874737
-0.0535023
-0.0166461
0.0276693
0.0846162
0.161738
0.27242
0.442107
0.718227
1.22572
2.41104
4.84854
)
;

boundaryField
{
    movingWall
    {
        type            zeroGradient;
    }
    fixedWalls
    {
        type            zeroGradient;
    }
    frontAndBack
    {
        type            empty;
    }
}


// ************************************************************************* //
