/*--------------------------------*- C++ -*----------------------------------*\
| =========                 |                                                 |
| \\      /  F ield         | OpenFOAM: The Open Source CFD Toolbox           |
|  \\    /   O peration     | Version:  1.7.1                                 |
|   \\  /    A nd           | Web:      www.OpenFOAM.com                      |
|    \\/     M anipulation  |                                                 |
\*---------------------------------------------------------------------------*/
FoamFile
{
    version     2.0;
    format      ascii;
    class       surfaceScalarField;
    location    "0.4";
    object      phi;
}
// * * * * * * * * * * * * * * * * * * * * * * * * * * * * * * * * * * * * * //

dimensions      [0 3 -1 0 0 0 0];

internalField   nonuniform List<scalar> 
760
(
1.42247e-08
-1.42753e-08
-2.22148e-08
3.64396e-08
-1.14275e-07
9.20596e-08
-2.45502e-07
1.31227e-07
-3.9611e-07
1.50608e-07
-5.47382e-07
1.51272e-07
-6.8321e-07
1.35829e-07
-7.90683e-07
1.07475e-07
-8.60228e-07
6.95453e-08
-8.85662e-07
2.54333e-08
-8.6434e-07
-2.13232e-08
-7.97407e-07
-6.69337e-08
-6.90101e-07
-1.07306e-07
-5.51985e-07
-1.38115e-07
-3.96952e-07
-1.55032e-07
-2.42754e-07
-1.54197e-07
-1.09735e-07
-1.33019e-07
-1.84162e-08
-9.13196e-08
1.56901e-08
-3.41072e-08
1.56895e-08
-3.42208e-08
1.99453e-08
-1.80385e-07
1.82604e-07
-4.34008e-07
3.45684e-07
-7.64465e-07
4.61684e-07
-1.13226e-06
5.184e-07
-1.4973e-06
5.16318e-07
-1.82341e-06
4.61934e-07
-2.08062e-06
3.64682e-07
-2.24636e-06
2.3529e-07
-2.30613e-06
8.51994e-08
-2.25398e-06
-7.3466e-08
-2.09312e-06
-2.27793e-07
-1.83633e-06
-3.64106e-07
-1.50609e-06
-4.68349e-07
-1.13412e-06
-5.27007e-07
-7.59546e-07
-5.28771e-07
-4.25413e-07
-4.67151e-07
-1.72697e-07
-3.44035e-07
-3.08024e-08
-1.76001e-07
-1.51136e-08
-9.22338e-08
1.12179e-07
-3.57013e-07
4.47384e-07
-7.6459e-07
7.53261e-07
-1.26854e-06
9.65631e-07
-1.81477e-06
1.06463e-06
-2.34913e-06
1.05068e-06
-2.82254e-06
9.35338e-07
-3.19406e-06
7.36202e-07
-3.43273e-06
4.73964e-07
-3.51863e-06
1.71104e-07
-3.44369e-06
-1.4841e-07
-3.21236e-06
-4.59119e-07
-2.8422e-06
-7.34272e-07
-2.36388e-06
-9.46669e-07
-1.82037e-06
-1.07051e-06
-1.26452e-06
-1.08462e-06
-7.54544e-07
-9.77131e-07
-3.4698e-07
-7.51598e-07
-8.73381e-08
-4.35643e-07
-1.02452e-07
-1.45217e-07
2.57395e-07
-5.2548e-07
8.27647e-07
-1.08167e-06
1.30945e-06
-1.74756e-06
1.63153e-06
-2.4544e-06
1.77147e-06
-3.13647e-06
1.73275e-06
-3.7354e-06
1.53427e-06
-4.20303e-06
1.20383e-06
-4.50305e-06
7.73982e-07
-4.61206e-06
2.80114e-07
-4.52038e-06
-2.40084e-07
-4.23285e-06
-7.46652e-07
-3.76947e-06
-1.19765e-06
-3.16572e-06
-1.55042e-06
-2.47194e-06
-1.7643e-06
-1.75111e-06
-1.80544e-06
-1.07454e-06
-1.65371e-06
-5.15152e-07
-1.31098e-06
-1.39319e-07
-8.11474e-07
-2.4177e-07
-1.93615e-07
4.5101e-07
-6.85019e-07
1.31905e-06
-1.38566e-06
2.01009e-06
-2.2073e-06
2.45317e-06
-3.06554e-06
2.62972e-06
-3.88387e-06
2.55107e-06
-4.59661e-06
2.24701e-06
-5.1507e-06
1.75792e-06
-5.50657e-06
1.12985e-06
-5.63865e-06
4.1219e-07
-5.53587e-06
-3.42857e-07
-5.20248e-06
-1.08004e-06
-4.65897e-06
-1.74116e-06
-3.94303e-06
-2.26636e-06
-3.10976e-06
-2.59756e-06
-2.23054e-06
-2.68467e-06
-1.38966e-06
-2.49458e-06
-6.78512e-07
-2.02213e-06
-1.87771e-07
-1.30221e-06
-4.29541e-07
-2.39946e-07
6.90956e-07
-8.40366e-07
1.91947e-06
-1.68332e-06
2.85304e-06
-2.65711e-06
3.42695e-06
-3.66091e-06
3.63351e-06
-4.60785e-06
3.49802e-06
-5.42645e-06
3.06561e-06
-6.06068e-06
2.39215e-06
-6.46947e-06
1.53864e-06
-6.62617e-06
5.68887e-07
-6.51844e-06
-4.50593e-07
-6.14891e-06
-1.44957e-06
-5.53663e-06
-2.35343e-06
-4.719e-06
-3.08399e-06
-3.75352e-06
-3.56304e-06
-2.71852e-06
-3.71967e-06
-1.71156e-06
-3.50154e-06
-8.44675e-07
-2.88902e-06
-2.36184e-07
-1.91071e-06
-6.65724e-07
-2.8675e-07
9.77706e-07
-9.97102e-07
2.62982e-06
-1.98211e-06
3.83805e-06
-3.10499e-06
4.54983e-06
-4.24802e-06
4.77654e-06
-5.3149e-06
4.5649e-06
-6.23021e-06
3.98092e-06
-6.93728e-06
3.09922e-06
-7.3956e-06
1.99697e-06
-7.57874e-06
7.52024e-07
-7.47327e-06
-5.56059e-07
-7.07922e-06
-1.84363e-06
-6.41198e-06
-3.02067e-06
-5.50566e-06
-3.9903e-06
-4.41712e-06
-4.65158e-06
-3.22942e-06
-4.90737e-06
-2.05298e-06
-4.67797e-06
-1.02255e-06
-3.91945e-06
-2.88285e-07
-2.64497e-06
-9.54009e-07
-3.36336e-07
1.31404e-06
-1.16038e-06
3.45387e-06
-2.28804e-06
4.96571e-06
-3.55504e-06
5.81683e-06
-4.82668e-06
6.04818e-06
-5.99914e-06
5.73736e-06
-6.99611e-06
4.9779e-06
-7.76361e-06
3.86671e-06
-8.26458e-06
2.49794e-06
-8.47471e-06
9.62154e-07
-8.38005e-06
-6.50712e-07
-7.97698e-06
-2.2467e-06
-7.27466e-06
-3.723e-06
-6.30002e-06
-4.96494e-06
-5.10473e-06
-5.84688e-06
-3.77257e-06
-6.23953e-06
-2.42491e-06
-6.02563e-06
-1.22076e-06
-5.12361e-06
-3.47711e-07
-3.51802e-06
-1.30172e-06
-3.90961e-07
1.705e-06
-1.3349e-06
4.39781e-06
-2.60499e-06
6.23581e-06
-4.00597e-06
7.2178e-06
-5.38685e-06
7.42906e-06
-6.6398e-06
6.99031e-06
-7.69249e-06
6.03059e-06
-8.49853e-06
4.67275e-06
-9.02848e-06
3.02789e-06
-9.26299e-06
1.19666e-06
-9.18871e-06
-7.24985e-07
-8.79754e-06
-2.63787e-06
-8.08942e-06
-4.43112e-06
-7.07907e-06
-5.97529e-06
-5.80636e-06
-7.11958e-06
-4.34908e-06
-7.69682e-06
-2.83483e-06
-7.53987e-06
-1.4471e-06
-6.51134e-06
-4.18101e-07
-4.54702e-06
-1.71982e-06
-4.53455e-07
2.15846e-06
-1.52569e-06
5.47004e-06
-2.93489e-06
7.64501e-06
-4.45013e-06
8.73304e-06
-5.90635e-06
8.88528e-06
-7.19784e-06
8.2818e-06
-8.2637e-06
7.09644e-06
-9.07211e-06
5.48116e-06
-9.60692e-06
3.5627e-06
-9.85764e-06
1.44739e-06
-9.81347e-06
-7.69156e-07
-9.46143e-06
-2.98991e-06
-8.78915e-06
-5.1034e-06
-7.79304e-06
-6.9714e-06
-6.49224e-06
-8.42038e-06
-4.94799e-06
-9.24107e-06
-3.28513e-06
-9.20274e-06
-1.70868e-06
-8.08778e-06
-5.03589e-07
-5.75212e-06
-2.22341e-06
-5.28334e-07
2.68679e-06
-1.73965e-06
6.68136e-06
-3.27796e-06
9.18332e-06
-4.87161e-06
1.03267e-05
-6.347e-06
1.03607e-05
-7.61081e-06
9.54561e-06
-8.62434e-06
8.10997e-06
-9.37967e-06
6.23649e-06
-9.88097e-06
4.064e-06
-1.01315e-05
1.69793e-06
-1.01258e-05
-7.74903e-07
-9.84632e-06
-3.26936e-06
-9.26598e-06
-5.68374e-06
-8.35633e-06
-7.88105e-06
-7.10469e-06
-9.67202e-06
-5.5407e-06
-1.08051e-05
-3.7707e-06
-1.09727e-05
-2.01217e-06
-9.84631e-06
-6.09688e-07
-7.15459e-06
-2.8331e-06
-6.23661e-07
3.31045e-06
-1.98737e-06
8.04507e-06
-3.63189e-06
1.08278e-05
-5.24189e-06
1.19367e-05
-6.64753e-06
1.17663e-05
-7.78443e-06
1.06825e-05
-8.65096e-06
8.97651e-06
-9.27425e-06
6.85978e-06
-9.68648e-06
4.47623e-06
-9.90976e-06
1.92121e-06
-9.94718e-06
-7.37482e-07
-9.77854e-06
-3.438e-06
-9.36085e-06
-6.10143e-06
-8.63558e-06
-8.60632e-06
-7.54636e-06
-1.07612e-05
-6.07157e-06
-1.22799e-05
-4.27426e-06
-1.277e-05
-2.36364e-06
-1.17569e-05
-7.44775e-07
-8.77346e-06
-3.57787e-06
-7.54069e-07
4.06452e-06
-2.28433e-06
9.57533e-06
-3.98697e-06
1.25305e-05
-5.50904e-06
1.34588e-05
-6.70954e-06
1.29668e-05
-7.57849e-06
1.15515e-05
-8.16997e-06
9.568e-06
-8.55754e-06
7.24735e-06
-8.80764e-06
4.72633e-06
-8.96497e-06
2.07854e-06
-9.04429e-06
-6.5816e-07
-9.02568e-06
-3.45661e-06
-8.85254e-06
-6.27457e-06
-8.43478e-06
-9.02408e-06
-7.66287e-06
-1.15331e-05
-6.44198e-06
-1.35007e-05
-4.75624e-06
-1.44558e-05
-2.76674e-06
-1.37464e-05
-9.22432e-07
-1.06178e-05
-4.50031e-06
-9.45198e-07
5.00972e-06
-2.64847e-06
1.12786e-05
-4.31095e-06
1.4193e-05
-5.57323e-06
1.47211e-05
-6.37059e-06
1.37642e-05
-6.78316e-06
1.1964e-05
-6.94036e-06
9.7252e-06
-6.96958e-06
7.27657e-06
-6.97262e-06
4.72937e-06
-7.01633e-06
2.12226e-06
-7.12844e-06
-5.46053e-07
-7.29361e-06
-3.29144e-06
-7.4485e-06
-6.11967e-06
-7.47778e-06
-8.99481e-06
-7.21785e-06
-1.17931e-05
-6.48269e-06
-1.42359e-05
-5.1334e-06
-1.58051e-05
-3.21496e-06
-1.56649e-05
-1.16438e-06
-1.26684e-05
-5.66469e-06
-1.23731e-06
6.24703e-06
-3.08326e-06
1.31246e-05
-4.50765e-06
1.56174e-05
-5.2344e-06
1.54478e-05
-5.35511e-06
1.38849e-05
-5.08169e-06
1.16906e-05
-4.63073e-06
9.27423e-06
-4.17907e-06
6.82491e-06
-3.85416e-06
4.40446e-06
-3.73682e-06
2.00492e-06
-3.86493e-06
-4.17942e-07
-4.23245e-06
-2.92392e-06
-4.78192e-06
-5.57021e-06
-5.39093e-06
-8.38579e-06
-5.85839e-06
-1.13256e-05
-5.9065e-06
-1.41878e-05
-5.23277e-06
-1.64788e-05
-3.66625e-06
-1.72314e-05
-1.50007e-06
-1.48345e-05
-7.16476e-06
-1.6738e-06
7.92082e-06
-3.51334e-06
1.49641e-05
-4.31525e-06
1.64193e-05
-4.08879e-06
1.52213e-05
-3.19294e-06
1.2989e-05
-1.9986e-06
1.04963e-05
-7.94977e-07
8.07061e-06
2.19523e-07
5.81041e-06
9.18431e-07
3.70555e-06
1.22581e-06
1.69754e-06
1.10226e-06
-2.94395e-07
5.41245e-07
-2.3629e-06
-4.22766e-07
-4.6062e-06
-1.69243e-06
-7.11613e-06
-3.0723e-06
-9.94574e-06
-4.23074e-06
-1.30293e-05
-4.6956e-06
-1.60139e-05
-3.96716e-06
-1.79598e-05
-1.94492e-06
-1.68568e-05
-9.10968e-06
-2.23068e-06
1.01515e-05
-3.59028e-06
1.63237e-05
-3.07774e-06
1.59067e-05
-1.34381e-06
1.34874e-05
8.97128e-07
1.07481e-05
3.15509e-06
8.23831e-06
5.13826e-06
6.08744e-06
6.68886e-06
4.25982e-06
7.72601e-06
2.66839e-06
8.20673e-06
1.21682e-06
8.10406e-06
-1.91726e-07
7.3992e-06
-1.65804e-06
6.08701e-06
-3.294e-06
4.19931e-06
-5.22843e-06
1.85425e-06
-7.60068e-06
-6.61647e-07
-1.05135e-05
-2.79213e-06
-1.38835e-05
-3.66207e-06
-1.70899e-05
-2.41153e-06
-1.81073e-05
-1.15212e-05
-2.57381e-06
1.27253e-05
-2.18345e-06
1.59333e-05
7.18095e-07
1.30052e-05
4.46961e-06
9.7359e-06
8.13335e-06
7.08433e-06
1.13017e-05
5.07001e-06
1.38292e-05
3.5599e-06
1.56882e-05
2.4008e-06
1.68918e-05
1.46481e-06
1.7455e-05
6.53606e-07
1.73765e-05
-1.13205e-07
1.66306e-05
-9.12162e-07
1.51673e-05
-1.83067e-06
1.29236e-05
-2.98475e-06
9.86182e-06
-4.5389e-06
6.06202e-06
-6.71365e-06
1.91237e-06
-9.73381e-06
-1.55961e-06
-1.36179e-05
-2.45833e-06
-1.72086e-05
-1.39795e-05
-7.85013e-07
1.35103e-05
4.0808e-06
1.10675e-05
1.02976e-05
6.78843e-06
1.57937e-05
4.2398e-06
2.01581e-05
2.71991e-06
2.34581e-05
1.76995e-06
2.58609e-05
1.15714e-06
2.75216e-05
7.40057e-07
2.85541e-05
4.32296e-07
2.90265e-05
1.81221e-07
2.89623e-05
-4.89831e-08
2.83388e-05
-2.88702e-07
2.70819e-05
-5.73744e-07
2.50551e-05
-9.57961e-07
2.20518e-05
-1.53553e-06
1.78155e-05
-2.47742e-06
1.21724e-05
-4.09068e-06
5.47773e-06
-6.92324e-06
-1.29168e-07
-1.16017e-05
-1.41087e-05
1.35103e-05
2.45778e-05
3.13663e-05
3.56061e-05
3.8326e-05
4.00959e-05
4.12531e-05
4.19931e-05
4.24254e-05
4.26067e-05
4.25577e-05
4.2269e-05
4.16952e-05
4.07373e-05
3.92017e-05
3.67243e-05
3.26336e-05
2.57104e-05
1.41087e-05
)
;

boundaryField
{
    movingWall
    {
        type            calculated;
        value           uniform 0;
    }
    fixedWalls
    {
        type            calculated;
        value           uniform 0;
    }
    frontAndBack
    {
        type            empty;
    }
}


// ************************************************************************* //
