/*--------------------------------*- C++ -*----------------------------------*\
| =========                 |                                                 |
| \\      /  F ield         | OpenFOAM: The Open Source CFD Toolbox           |
|  \\    /   O peration     | Version:  1.7.1                                 |
|   \\  /    A nd           | Web:      www.OpenFOAM.com                      |
|    \\/     M anipulation  |                                                 |
\*---------------------------------------------------------------------------*/
FoamFile
{
    version     2.0;
    format      ascii;
    class       volVectorField;
    location    "0.4";
    object      U;
}
// * * * * * * * * * * * * * * * * * * * * * * * * * * * * * * * * * * * * * //

dimensions      [0 1 -1 0 0 0 0];

internalField   nonuniform List<vector> 
400
(
(0.000253319 -0.000250526 0)
(0.000141081 0.000111375 0)
(-0.00117707 0.000564585 0)
(-0.00348122 0.000884982 0)
(-0.00637766 0.00104572 0)
(-0.00946973 0.00106176 0)
(-0.0124033 0.00095787 0)
(-0.0148854 0.000760457 0)
(-0.01669 0.000494655 0)
(-0.0176588 0.00018456 0)
(-0.0177027 -0.000145279 0)
(-0.0168056 -0.000468383 0)
(-0.0150305 -0.000755434 0)
(-0.0125255 -0.000974285 0)
(-0.00952667 -0.00109121 0)
(-0.00635515 -0.00107403 0)
(-0.00340072 -0.000898145 0)
(-0.00108644 -0.000556408 0)
(0.000196443 -9.0374e-05 0)
(0.000267871 0.000262389 0)
(-7.75226e-05 -0.000169504 0)
(-0.00161171 0.00164478 0)
(-0.00569318 0.00361736 0)
(-0.0117193 0.00503495 0)
(-0.0188931 0.0057434 0)
(-0.0264019 0.0057604 0)
(-0.0334706 0.00517187 0)
(-0.0394285 0.00409268 0)
(-0.0437459 0.00264774 0)
(-0.0460491 0.000966954 0)
(-0.0461315 -0.000813273 0)
(-0.0439633 -0.00254719 0)
(-0.0397029 -0.00407882 0)
(-0.0337041 -0.00524532 0)
(-0.0265145 -0.00588679 0)
(-0.0188553 -0.00586508 0)
(-0.0115671 -0.00509495 0)
(-0.00551349 -0.00358956 0)
(-0.00149312 -0.0015592 0)
(-4.25721e-05 0.000227462 0)
(-0.000528656 0.0010916 0)
(-0.00371161 0.00573644 0)
(-0.0105895 0.0102248 0)
(-0.0199927 0.0134082 0)
(-0.0307663 0.0149469 0)
(-0.0418242 0.0148394 0)
(-0.0521224 0.0132562 0)
(-0.0607472 0.0104566 0)
(-0.0669728 0.00674227 0)
(-0.0702862 0.00243895 0)
(-0.0704041 -0.00210667 0)
(-0.0672876 -0.00652579 0)
(-0.0611553 -0.0104297 0)
(-0.0524909 -0.0134217 0)
(-0.042039 -0.0151241 0)
(-0.0307753 -0.0152263 0)
(-0.0198299 -0.0135565 0)
(-0.010364 -0.0101793 0)
(-0.00354865 -0.00555127 0)
(-0.000476858 -0.000948865 0)
(-0.000928278 0.00347995 0)
(-0.00569179 0.0122211 0)
(-0.0153026 0.0199225 0)
(-0.0279182 0.0251988 0)
(-0.0419875 0.0275981 0)
(-0.0561818 0.0271386 0)
(-0.0692555 0.0241099 0)
(-0.0801296 0.0189546 0)
(-0.0879525 0.012196 0)
(-0.0921233 0.0044052 0)
(-0.0923079 -0.00380821 0)
(-0.0884544 -0.0117971 0)
(-0.0808088 -0.018883 0)
(-0.0699261 -0.0243774 0)
(-0.0566718 -0.0276288 0)
(-0.0421967 -0.0281029 0)
(-0.0278578 -0.0254987 0)
(-0.0150943 -0.0198924 0)
(-0.00550527 -0.0119281 0)
(-0.000861634 -0.00322497 0)
(-0.00127899 0.00687805 0)
(-0.00753639 0.0209545 0)
(-0.0198057 0.0325116 0)
(-0.0355365 0.0401047 0)
(-0.0527459 0.0432919 0)
(-0.0698618 0.0421944 0)
(-0.0854673 0.0372789 0)
(-0.0983651 0.0292141 0)
(-0.107625 0.0187779 0)
(-0.112593 0.00681387 0)
(-0.112902 -0.00578074 0)
(-0.108479 -0.0180555 0)
(-0.0995665 -0.0290126 0)
(-0.0867429 -0.0376342 0)
(-0.0709387 -0.0429466 0)
(-0.0534324 -0.0441305 0)
(-0.035786 -0.0406801 0)
(-0.0197359 -0.0325936 0)
(-0.00737087 -0.0205912 0)
(-0.00120372 -0.00649835 0)
(-0.00160758 0.011216 0)
(-0.00931836 0.0318756 0)
(-0.0242101 0.0479534 0)
(-0.0430042 0.0580738 0)
(-0.0632593 0.0619391 0)
(-0.0831559 0.059883 0)
(-0.101128 0.0526299 0)
(-0.115896 0.041127 0)
(-0.126492 0.0264377 0)
(-0.132242 0.00969301 0)
(-0.132754 -0.00791676 0)
(-0.127927 -0.0251331 0)
(-0.11797 -0.0406264 0)
(-0.103437 -0.053021 0)
(-0.0852714 -0.060968 0)
(-0.0648374 -0.0632818 0)
(-0.0438867 -0.0591435 0)
(-0.0244783 -0.0483456 0)
(-0.00925456 -0.0315583 0)
(-0.0015378 -0.0107288 0)
(-0.0019401 0.0164775 0)
(-0.0111215 0.0449753 0)
(-0.028651 0.0662349 0)
(-0.0504809 0.0790612 0)
(-0.0736865 0.0834482 0)
(-0.0962058 0.080076 0)
(-0.116354 0.0700259 0)
(-0.132817 0.054586 0)
(-0.144634 0.0351323 0)
(-0.151144 0.0130848 0)
(-0.151952 -0.010087 0)
(-0.146918 -0.0328336 0)
(-0.136184 -0.0535011 0)
(-0.120225 -0.0703385 0)
(-0.0999343 -0.0815671 0)
(-0.0767026 -0.0855345 0)
(-0.052441 -0.0809653 0)
(-0.0295453 -0.0672783 0)
(-0.0112838 -0.0449403 0)
(-0.00190011 -0.0159519 0)
(-0.00230006 0.0226954 0)
(-0.0130252 0.0603019 0)
(-0.0332511 0.087365 0)
(-0.0580802 0.102998 0)
(-0.0840754 0.107667 0)
(-0.108954 0.102563 0)
(-0.130969 0.0892455 0)
(-0.148836 0.0694118 0)
(-0.161668 0.0447722 0)
(-0.168869 0.0170199 0)
(-0.170064 -0.012134 0)
(-0.165073 -0.0408941 0)
(-0.153931 -0.0673156 0)
(-0.136971 -0.0892747 0)
(-0.114944 -0.104514 0)
(-0.0891764 -0.110798 0)
(-0.061671 -0.106214 0)
(-0.0351485 -0.0895806 0)
(-0.0135859 -0.0609503 0)
(-0.00232635 -0.0222778 0)
(-0.00271165 0.0299473 0)
(-0.015108 0.0779573 0)
(-0.0381148 0.111357 0)
(-0.0658484 0.129751 0)
(-0.0943268 0.134318 0)
(-0.121099 0.126975 0)
(-0.144444 0.109903 0)
(-0.163213 0.0852825 0)
(-0.176687 0.0551675 0)
(-0.184407 0.0214869 0)
(-0.186058 -0.0138751 0)
(-0.181422 -0.0489574 0)
(-0.170395 -0.0815945 0)
(-0.153081 -0.109325 0)
(-0.129971 -0.129382 0)
(-0.102186 -0.13883 0)
(-0.0716895 -0.134888 0)
(-0.0414669 -0.11547 0)
(-0.016288 -0.0798959 0)
(-0.00285469 -0.0298898 0)
(-0.00320765 0.0383598 0)
(-0.0174662 0.0980898 0)
(-0.0433409 0.13819 0)
(-0.0737564 0.159046 0)
(-0.10416 0.162902 0)
(-0.132032 0.152674 0)
(-0.155825 0.131342 0)
(-0.174678 0.101641 0)
(-0.188168 0.0659579 0)
(-0.196068 0.0263895 0)
(-0.198186 -0.015113 0)
(-0.194283 -0.0565459 0)
(-0.184081 -0.0956428 0)
(-0.167366 -0.12969 0)
(-0.144215 -0.155425 0)
(-0.115339 -0.169098 0)
(-0.0824457 -0.166803 0)
(-0.0486361 -0.145125 0)
(-0.0195287 -0.10216 0)
(-0.00353356 -0.0390474 0)
(-0.00384395 0.0481287 0)
(-0.0202461 0.120894 0)
(-0.0490465 0.167752 0)
(-0.0816863 0.190367 0)
(-0.113053 0.192558 0)
(-0.140746 0.178615 0)
(-0.163622 0.152513 0)
(-0.181309 0.117593 0)
(-0.193846 0.0765352 0)
(-0.201361 0.0314944 0)
(-0.203857 -0.015659 0)
(-0.20111 -0.0630509 0)
(-0.192648 -0.108492 0)
(-0.177857 -0.149171 0)
(-0.156224 -0.181416 0)
(-0.127779 -0.200607 0)
(-0.0936441 -0.201425 0)
(-0.056733 -0.178574 0)
(-0.0234798 -0.128173 0)
(-0.00443553 -0.0501045 0)
(-0.00472535 0.0595712 0)
(-0.0236946 0.146617 0)
(-0.0553829 0.199756 0)
(-0.0893763 0.222791 0)
(-0.120122 0.221892 0)
(-0.145676 0.203188 0)
(-0.16563 0.171841 0)
(-0.180371 0.131811 0)
(-0.190581 0.0859702 0)
(-0.196863 0.0363766 0)
(-0.199502 -0.0153707 0)
(-0.198336 -0.0677433 0)
(-0.192717 -0.118867 0)
(-0.181574 -0.166079 0)
(-0.163645 -0.205489 0)
(-0.137967 -0.231662 0)
(-0.104596 -0.237626 0)
(-0.0657335 -0.215525 0)
(-0.0283777 -0.158368 0)
(-0.00568208 -0.0635522 0)
(-0.00605156 0.0732283 0)
(-0.0282258 0.175563 0)
(-0.0625086 0.233571 0)
(-0.0962568 0.254747 0)
(-0.123857 0.248732 0)
(-0.144397 0.224027 0)
(-0.15867 0.187108 0)
(-0.168107 0.142462 0)
(-0.174201 0.0929692 0)
(-0.178118 0.0403792 0)
(-0.180485 -0.0141985 0)
(-0.181265 -0.0698214 0)
(-0.179695 -0.125211 0)
(-0.17427 -0.178181 0)
(-0.162895 -0.224974 0)
(-0.143316 -0.259588 0)
(-0.113937 -0.273329 0)
(-0.075393 -0.255067 0)
(-0.0345563 -0.19309 0)
(-0.00748628 -0.0801042 0)
(-0.00819204 0.0900462 0)
(-0.0344826 0.20802 0)
(-0.070412 0.267884 0)
(-0.101023 0.283606 0)
(-0.121574 0.269811 0)
(-0.133107 0.237841 0)
(-0.138162 0.195405 0)
(-0.139461 0.147233 0)
(-0.139366 0.0959095 0)
(-0.139594 0.0426197 0)
(-0.141108 -0.012233 0)
(-0.144054 -0.0685073 0)
(-0.147668 -0.125794 0)
(-0.150169 -0.18277 0)
(-0.14872 -0.236325 0)
(-0.139643 -0.280447 0)
(-0.119094 -0.305026 0)
(-0.0849358 -0.295159 0)
(-0.0424404 -0.232377 0)
(-0.010216 -0.100837 0)
(-0.0117675 0.111635 0)
(-0.0432596 0.243961 0)
(-0.0782969 0.300034 0)
(-0.100627 0.305093 0)
(-0.10835 0.28046 0)
(-0.105729 0.240383 0)
(-0.0975275 0.193281 0)
(-0.0877687 0.143549 0)
(-0.0794986 0.0930361 0)
(-0.0747829 0.0420951 0)
(-0.0748005 -0.00972884 0)
(-0.0798885 -0.0632113 0)
(-0.0894608 -0.118991 0)
(-0.101787 -0.176958 0)
(-0.113685 -0.235285 0)
(-0.120304 -0.288882 0)
(-0.115263 -0.327196 0)
(-0.0922661 -0.331794 0)
(-0.0523156 -0.275403 0)
(-0.0144303 -0.127347 0)
(-0.0175493 0.140659 0)
(-0.0547644 0.282145 0)
(-0.0827858 0.324718 0)
(-0.0880796 0.312474 0)
(-0.0751073 0.274456 0)
(-0.0525893 0.226771 0)
(-0.0274564 0.177289 0)
(-0.00451216 0.129135 0)
(0.0131015 0.0829129 0)
(0.0234427 0.037947 0)
(0.0254013 -0.00707356 0)
(0.0185101 -0.0537587 0)
(0.00298223 -0.103752 0)
(-0.0199948 -0.15832 0)
(-0.0476842 -0.217502 0)
(-0.0749835 -0.278361 0)
(-0.0935459 -0.331791 0)
(-0.0920633 -0.357683 0)
(-0.0632804 -0.319294 0)
(-0.0206336 -0.161974 0)
(-0.0254497 0.181711 0)
(-0.0657744 0.317771 0)
(-0.0733327 0.331362 0)
(-0.0480763 0.295401 0)
(-0.00557714 0.244212 0)
(0.04122 0.192381 0)
(0.084655 0.145047 0)
(0.120539 0.102972 0)
(0.146704 0.065138 0)
(0.16205 0.0298914 0)
(0.165944 -0.00467163 0)
(0.157938 -0.0406286 0)
(0.137734 -0.0802468 0)
(0.105442 -0.125918 0)
(0.0622636 -0.179727 0)
(0.0118068 -0.242021 0)
(-0.0378292 -0.307878 0)
(-0.071679 -0.360143 0)
(-0.0700554 -0.356608 0)
(-0.0279122 -0.208375 0)
(-0.029649 0.239176 0)
(-0.0608412 0.335767 0)
(-0.0219422 0.300503 0)
(0.0505423 0.240127 0)
(0.127573 0.182949 0)
(0.197009 0.135389 0)
(0.254338 0.0973992 0)
(0.298252 0.0668512 0)
(0.328826 0.0413554 0)
(0.346469 0.0187786 0)
(0.351378 -0.00279421 0)
(0.343304 -0.0252653 0)
(0.32147 -0.0507879 0)
(0.284644 -0.0820483 0)
(0.231573 -0.122446 0)
(0.162182 -0.175669 0)
(0.079901 -0.243431 0)
(-0.00318967 -0.319136 0)
(-0.0546695 -0.368612 0)
(-0.0284594 -0.267618 0)
(0.0080831 0.281861 0)
(0.0197831 0.294972 0)
(0.139066 0.210973 0)
(0.26446 0.143477 0)
(0.364368 0.097186 0)
(0.440364 0.0657775 0)
(0.496743 0.0442375 0)
(0.536874 0.028886 0)
(0.563447 0.0171989 0)
(0.578306 0.00748478 0)
(0.582381 -0.00149415 0)
(0.575696 -0.0108453 0)
(0.557309 -0.0218471 0)
(0.525135 -0.036335 0)
(0.475777 -0.0572596 0)
(0.404537 -0.0893841 0)
(0.305176 -0.139741 0)
(0.173417 -0.216386 0)
(0.041172 -0.311655 0)
(0.0184302 -0.299995 0)
(0.299604 0.146091 0)
(0.396272 0.127503 0)
(0.55742 0.0760895 0)
(0.674487 0.0437233 0)
(0.743888 0.0255721 0)
(0.787153 0.0152422 0)
(0.815485 0.00921234 0)
(0.833955 0.00550942 0)
(0.845385 0.00302718 0)
(0.851372 0.00114934 0)
(0.852666 -0.000499392 0)
(0.849382 -0.00221508 0)
(0.841 -0.00433857 0)
(0.826141 -0.00742408 0)
(0.802078 -0.0125323 0)
(0.763621 -0.0217728 0)
(0.699108 -0.0392829 0)
(0.583952 -0.0726601 0)
(0.415827 -0.127868 0)
(0.308819 -0.149468 0)
)
;

boundaryField
{
    movingWall
    {
        type            fixedValue;
        value           uniform (1 0 0);
    }
    fixedWalls
    {
        type            fixedValue;
        value           uniform (0 0 0);
    }
    frontAndBack
    {
        type            empty;
    }
}


// ************************************************************************* //
