/*--------------------------------*- C++ -*----------------------------------*\
| =========                 |                                                 |
| \\      /  F ield         | OpenFOAM: The Open Source CFD Toolbox           |
|  \\    /   O peration     | Version:  1.7.1                                 |
|   \\  /    A nd           | Web:      www.OpenFOAM.com                      |
|    \\/     M anipulation  |                                                 |
\*---------------------------------------------------------------------------*/
FoamFile
{
    version     2.0;
    format      ascii;
    class       volScalarField;
    location    "1200";
    object      alphat;
}
// * * * * * * * * * * * * * * * * * * * * * * * * * * * * * * * * * * * * * //

dimensions      [1 -1 -1 0 0 0 0];

internalField   nonuniform List<scalar> 
4000
(
0.000133282
0.000137328
0.000139311
0.000140139
0.000140235
0.000140079
0.000139624
0.000138232
0.000135391
0.000132285
0.000130787
0.000130607
0.000130963
0.000131053
0.000131042
0.000132334
0.000133242
0.0001325
0.000129569
0.000123303
0.000154748
0.000163412
0.000166558
0.000168494
0.000170056
0.000170223
0.000169278
0.000167881
0.000165783
0.000163288
0.000160213
0.000157027
0.000155237
0.000154648
0.000154737
0.000155527
0.000156049
0.000155598
0.000153841
0.000141378
0.000192017
0.000189494
0.000183148
0.000179637
0.000185936
0.000187207
0.000185528
0.000186742
0.000187313
0.0001888
0.000188573
0.000185596
0.000181747
0.000179091
0.000178624
0.000177964
0.000177258
0.000174358
0.000174615
0.000173999
0.000313923
0.000283005
0.0002538
0.000235351
0.00022222
0.000207473
0.000188981
0.000197377
0.000200633
0.000203329
0.000204269
0.000201693
0.000197741
0.000193383
0.00018793
0.000207131
0.000228379
0.000252512
0.00028445
0.000305905
0.000373653
0.00036364
0.000343848
0.00031768
0.000291179
0.000267104
0.000252768
0.000237313
0.000225889
0.000226409
0.000228475
0.000228285
0.000232782
0.000249921
0.000273929
0.000298974
0.000325042
0.0003484
0.00035978
0.000364626
0.000393804
0.000391032
0.000382276
0.000371229
0.000359714
0.000347344
0.00033295
0.000318126
0.000310286
0.00030902
0.000319787
0.000328112
0.000335866
0.000346047
0.000360752
0.000370847
0.000379376
0.000386068
0.000388968
0.000386425
0.00040638
0.000412837
0.00041621
0.000419194
0.000422282
0.000424195
0.000423413
0.000419907
0.000414637
0.000410242
0.000421563
0.000432046
0.000437353
0.00043895
0.000437621
0.000433556
0.000427742
0.000420813
0.000411848
0.000400381
0.000417073
0.000433561
0.000449425
0.000463894
0.000476423
0.000486016
0.000491823
0.000493305
0.000490146
0.000483759
0.00049452
0.00050526
0.000508691
0.000505952
0.000498385
0.000486858
0.000471965
0.000454255
0.000433844
0.000412516
0.000429056
0.000455905
0.000481946
0.0005049
0.000524793
0.000540983
0.000552796
0.000559273
0.000558921
0.000551196
0.000561413
0.000572114
0.000572913
0.000565651
0.000552513
0.000534723
0.000512821
0.000487139
0.000457205
0.000425874
0.000444961
0.000483379
0.00051903
0.000549468
0.000576
0.000598507
0.000616531
0.000629057
0.000634269
0.000628621
0.000637058
0.000642909
0.000637928
0.000625261
0.000606873
0.00058375
0.000556186
0.000523988
0.000485514
0.000443034
0.000137328
0.00014942
0.000155418
0.000158874
0.000160915
0.000163272
0.000164759
0.000162067
0.000156284
0.000151378
0.000149835
0.000150429
0.000152204
0.000154382
0.000155933
0.00015545
0.000153224
0.000148843
0.000142001
0.000127728
0.000163412
0.000324989
0.000371617
0.000415496
0.000467376
0.000507842
0.000518472
0.000518486
0.000509947
0.000496191
0.000481607
0.00047486
0.000477747
0.000485206
0.000489313
0.000473196
0.000447103
0.00041843
0.000360623
0.00014814
0.000189494
0.000283787
0.000355264
0.000462566
0.000533144
0.000555454
0.000545995
0.000556488
0.000562818
0.000572066
0.000572968
0.000560231
0.00054297
0.000531092
0.000520053
0.000508229
0.000499838
0.000480872
0.000380312
0.000172944
0.000283004
0.00032941
0.000339777
0.000364755
0.000396095
0.000420996
0.000492689
0.00048929
0.000468668
0.000483316
0.000496578
0.000479685
0.000466353
0.000490755
0.000511253
0.000420632
0.000374453
0.00035729
0.000336061
0.000274753
0.00036364
0.000474429
0.000466542
0.000430919
0.000399666
0.000379343
0.00037283
0.000372527
0.000372542
0.000375578
0.000380142
0.00037281
0.000371208
0.000382675
0.000392872
0.000403353
0.000433972
0.000464476
0.00045966
0.00035199
0.000391032
0.000504271
0.000525595
0.000512589
0.000479967
0.000442377
0.000412932
0.000390324
0.000375229
0.000367334
0.000371981
0.000379668
0.000391026
0.000412731
0.000445412
0.000484553
0.0005089
0.000514143
0.000488604
0.000382205
0.000412837
0.00053801
0.000575799
0.000588988
0.000593428
0.00058136
0.00054677
0.000505718
0.000473286
0.000458613
0.000477722
0.000507318
0.000537612
0.000570658
0.000599034
0.000599904
0.000587163
0.000565596
0.000522954
0.000406547
0.000433561
0.000570349
0.000624856
0.000665401
0.000703409
0.000729949
0.000739673
0.000730964
0.000702346
0.000670235
0.000705084
0.000759675
0.000784326
0.000780324
0.000755412
0.000715687
0.000667638
0.000617939
0.000557505
0.000429167
0.000455905
0.000588707
0.000654868
0.000705267
0.000752507
0.000791465
0.00081709
0.000823834
0.000801779
0.000753908
0.000794717
0.000861173
0.000882708
0.000866854
0.000828472
0.000776816
0.000716934
0.000655476
0.000581142
0.000452989
0.000483379
0.000528173
0.000571226
0.000609596
0.000644154
0.000674326
0.000699268
0.000717376
0.00072628
0.000722596
0.000730944
0.00073479
0.000725799
0.000707174
0.000681588
0.000650668
0.00061514
0.0005753
0.000529993
0.000482084
0.000139311
0.000155418
0.000163129
0.000167764
0.000171389
0.000175893
0.000179338
0.000177791
0.000172436
0.000168198
0.000166932
0.000167342
0.000168597
0.000169871
0.000169629
0.000167158
0.000163329
0.000157719
0.000148761
0.000129353
0.000166558
0.000371618
0.000427596
0.000480159
0.000547449
0.000608499
0.00063795
0.000649692
0.000642678
0.000620343
0.000598612
0.000594427
0.000603745
0.000616069
0.000621175
0.0006
0.000562946
0.000514376
0.000422619
0.000152207
0.000183148
0.000355265
0.000461634
0.000570914
0.000641673
0.000670134
0.0006802
0.000698056
0.000714443
0.000733644
0.000737726
0.00072491
0.000701804
0.000685619
0.000674302
0.000641058
0.000623635
0.000595138
0.000515877
0.00018355
0.0002538
0.000339778
0.000388578
0.000441691
0.000494496
0.00054837
0.000614669
0.000604894
0.000596065
0.000622221
0.000640205
0.00062515
0.000599691
0.000629864
0.000690454
0.000600299
0.000492251
0.000427933
0.000365062
0.000245232
0.000343848
0.000466542
0.000484231
0.00047048
0.00045755
0.000452558
0.000460235
0.000478325
0.000493652
0.000500652
0.000509831
0.000520447
0.000509464
0.000496852
0.000487474
0.000472713
0.000471819
0.000476955
0.000450197
0.000331461
0.000382276
0.000525595
0.000569613
0.000563552
0.000528874
0.000493018
0.000467861
0.000451656
0.000443304
0.000446264
0.000452308
0.000446984
0.000449125
0.000463599
0.000486979
0.000517439
0.000544063
0.000543185
0.000500204
0.00037243
0.00041621
0.000575799
0.000641539
0.000664156
0.000659138
0.000626261
0.000591123
0.000560189
0.000538262
0.000528167
0.000538594
0.000548
0.000562321
0.000586758
0.000617028
0.000643662
0.000640482
0.000613019
0.000550891
0.000409903
0.000449425
0.000624856
0.000722294
0.000790342
0.000842834
0.000869398
0.000864232
0.000844929
0.000817435
0.000792449
0.000820263
0.000855815
0.000873596
0.000879618
0.000871621
0.000831674
0.000768969
0.000694517
0.000600913
0.000445226
0.000481946
0.000654867
0.000803515
0.000939395
0.00106402
0.00116316
0.00123839
0.00128154
0.00128743
0.00127017
0.00130753
0.00134235
0.00134436
0.00129264
0.00119955
0.00108163
0.000936253
0.000785191
0.000636209
0.000479026
0.00051903
0.000571226
0.000620746
0.000665563
0.000706435
0.000742656
0.000773257
0.000796172
0.000808466
0.000806447
0.000814731
0.000816579
0.000803707
0.000779837
0.000748252
0.000711119
0.000669324
0.000623388
0.000572338
0.000517849
0.000140139
0.000158874
0.000167764
0.000173037
0.000178062
0.000183957
0.00018959
0.000190587
0.000186138
0.00018213
0.000180771
0.000180523
0.000180558
0.000180415
0.000179806
0.000176423
0.000171215
0.000164265
0.000153311
0.000130188
0.000168494
0.000415497
0.000480161
0.000529185
0.000590047
0.000651351
0.000696184
0.000722402
0.000731124
0.000710215
0.000689089
0.000690014
0.000702744
0.0007099
0.000700951
0.000677292
0.000630325
0.000566803
0.000457171
0.000154634
0.000179637
0.000462568
0.000570915
0.000645627
0.000693464
0.000723007
0.000757011
0.000783679
0.000814986
0.000845462
0.000855335
0.000844793
0.000818058
0.000789317
0.000771346
0.000732671
0.000685371
0.000641132
0.000545613
0.000185741
0.000235351
0.000364756
0.000441692
0.000509132
0.000575301
0.000642158
0.000684708
0.000684745
0.000700351
0.000737861
0.000762858
0.000751373
0.000716288
0.000710262
0.000764856
0.000743489
0.000617556
0.00050243
0.000395597
0.000224445
0.000317679
0.000430919
0.00047048
0.000483846
0.000492601
0.000505794
0.000532645
0.000563689
0.000588342
0.00061521
0.000638585
0.000641043
0.00063191
0.000603474
0.00057251
0.000531191
0.000496133
0.000465022
0.00041479
0.000303803
0.000371228
0.000512589
0.000563552
0.000566327
0.000545367
0.000523956
0.000510837
0.000509158
0.000525962
0.000564896
0.00057937
0.000540952
0.000515064
0.000511525
0.000517359
0.000526357
0.0005348
0.000526245
0.000480903
0.000360954
0.000419194
0.000588988
0.000664155
0.000692032
0.000686018
0.000667081
0.00064854
0.000638282
0.000639222
0.000651886
0.000648309
0.000621652
0.000609122
0.000615006
0.000629914
0.000643877
0.000644665
0.000620196
0.000559213
0.000413305
0.000463893
0.000665401
0.000790342
0.000883127
0.000954821
0.000990182
0.000998184
0.000988141
0.00096571
0.000943304
0.000954747
0.000972968
0.000978321
0.000971302
0.000949297
0.000904502
0.000834424
0.000745572
0.000636014
0.000459926
0.000504899
0.000705267
0.000939395
0.00119405
0.00144037
0.00160475
0.00168271
0.00167169
0.00160138
0.0014968
0.00152833
0.00164206
0.00169705
0.00168399
0.00159769
0.00143312
0.00117615
0.00090657
0.000681385
0.000501938
0.000549468
0.000609596
0.000665563
0.000716681
0.00076373
0.000805974
0.000842479
0.000870957
0.000887662
0.000889056
0.000896779
0.000895183
0.000877305
0.000847404
0.000809525
0.000766283
0.000718458
0.0006667
0.000609911
0.000548143
0.000140235
0.000160915
0.000171389
0.000178062
0.000183733
0.000190363
0.000197729
0.000201978
0.000199775
0.000195121
0.000192807
0.000191624
0.000191504
0.000191943
0.00019002
0.000185637
0.000178997
0.000170022
0.000156791
0.000130149
0.000170057
0.000467378
0.000547451
0.000590048
0.000634121
0.000684926
0.000733852
0.000772895
0.00080157
0.000796666
0.000782142
0.000790134
0.000798968
0.000779526
0.000753096
0.000720565
0.000668474
0.000596453
0.000477695
0.000155893
0.000185936
0.000533146
0.000641674
0.000693465
0.000727382
0.000768657
0.00080848
0.000844952
0.000890039
0.000928113
0.000944132
0.000941527
0.00091222
0.00086923
0.000832718
0.000794916
0.000730419
0.000650926
0.000534508
0.000183238
0.00022222
0.000396096
0.000494497
0.000575301
0.000649434
0.000703227
0.000729074
0.000743114
0.00077949
0.000829672
0.000859534
0.000855108
0.000817089
0.000777595
0.000781708
0.000795918
0.000723763
0.000594692
0.000441372
0.000199509
0.000291178
0.000399666
0.00045755
0.000492602
0.000521187
0.000555398
0.000594987
0.000633363
0.000671017
0.000718559
0.00074978
0.000742936
0.000725409
0.000694153
0.000648479
0.000591861
0.000526145
0.000463411
0.000388513
0.000278219
0.000359713
0.000479966
0.000528873
0.000545366
0.000545418
0.00054266
0.000546698
0.00056727
0.00061766
0.000696315
0.000719295
0.000650643
0.000591106
0.000559268
0.000543663
0.000531114
0.000515568
0.000489967
0.000446219
0.000349142
0.000422282
0.000593427
0.000659137
0.000686018
0.000698429
0.000700997
0.000703905
0.000716654
0.000748615
0.000809099
0.000789074
0.00070784
0.000664037
0.000647769
0.000642869
0.0006367
0.000621758
0.000599606
0.000559299
0.000416927
0.000476423
0.000703408
0.000842833
0.000954821
0.00103881
0.00108378
0.00110118
0.00110049
0.00108702
0.00107663
0.00106806
0.00106428
0.00105926
0.00104052
0.00100597
0.000951598
0.000872635
0.000783041
0.000671
0.00047267
0.000524793
0.000752506
0.00106402
0.00144037
0.00172814
0.00186125
0.00193122
0.00193741
0.00185103
0.00169809
0.00172017
0.00186886
0.00193929
0.00191127
0.00181609
0.00166892
0.00140116
0.00102091
0.000725722
0.000521758
0.000576
0.000644154
0.000706435
0.00076373
0.000817013
0.000866671
0.000910944
0.000946922
0.000970759
0.000979302
0.000986511
0.000977503
0.0009523
0.000914763
0.000868949
0.000817827
0.000763815
0.000706365
0.000643791
0.000574463
0.000140079
0.000163272
0.000175893
0.000183957
0.000190363
0.000197097
0.000205549
0.000212573
0.000214201
0.000209415
0.000205439
0.000205239
0.000205648
0.000203573
0.000198996
0.000192875
0.000185087
0.00017463
0.00015895
0.000129625
0.000170223
0.000507842
0.0006085
0.000651352
0.000684926
0.000724947
0.000769536
0.000811456
0.000844466
0.000857293
0.000862301
0.000875329
0.000863973
0.000831606
0.000788305
0.000743226
0.000689198
0.000613881
0.000487018
0.000155637
0.000187207
0.000555455
0.000670135
0.000723008
0.000768657
0.00081112
0.000849182
0.000888773
0.000924353
0.000931496
0.000946505
0.000974699
0.000966345
0.000923532
0.000869554
0.00081928
0.000759539
0.000673592
0.00053774
0.000179741
0.000207473
0.000420997
0.000548371
0.000642159
0.000703227
0.000740087
0.000762954
0.000790943
0.000826424
0.00084346
0.000866218
0.000891541
0.000876831
0.000832791
0.000794002
0.000778726
0.000746901
0.000665641
0.00052968
0.000189583
0.000267103
0.000379343
0.000452559
0.000505794
0.000555398
0.000603683
0.000649197
0.000693506
0.000738854
0.000778492
0.000805889
0.000811268
0.00079434
0.000757297
0.000706454
0.000645208
0.000567452
0.00048064
0.000382233
0.00025778
0.000347343
0.000442376
0.000493018
0.000523956
0.00054266
0.000558808
0.000583085
0.000627016
0.000703755
0.0007997
0.00082623
0.000753286
0.000672097
0.000613776
0.000572481
0.000538855
0.000504354
0.000462541
0.000411925
0.000337228
0.000424195
0.000581359
0.00062626
0.00066708
0.000700997
0.000726004
0.000748239
0.000781929
0.000848786
0.000954191
0.000926995
0.000797261
0.000719523
0.000682233
0.00065819
0.000631918
0.00059762
0.000562145
0.000539487
0.00041937
0.000486016
0.000729949
0.000869397
0.000990181
0.00108377
0.00113878
0.00116695
0.00117324
0.00116369
0.00116369
0.00114128
0.00112182
0.00111432
0.0010886
0.00104175
0.00097615
0.00088769
0.000788735
0.000692973
0.00048243
0.000540983
0.000791464
0.00116316
0.00160475
0.00186125
0.00201837
0.00211492
0.00211919
0.00197852
0.00173582
0.00174254
0.00197922
0.00211135
0.00208985
0.00196656
0.00178451
0.00154052
0.00111528
0.000762256
0.000537829
0.000598507
0.000674326
0.000742655
0.000805974
0.000866671
0.000924399
0.000976954
0.00102143
0.0010542
0.00107334
0.0010805
0.00106087
0.00102648
0.000980305
0.000926062
0.000866852
0.000805143
0.00074189
0.000673487
0.000596724
0.000139624
0.00016476
0.000179339
0.00018959
0.00019773
0.000205549
0.000214256
0.000223168
0.000229276
0.000229976
0.000226413
0.000224188
0.000220248
0.000213916
0.000206422
0.000198003
0.000188322
0.000176202
0.000158982
0.000128847
0.000169278
0.000518472
0.000637951
0.000696186
0.000733853
0.000769536
0.000806393
0.000840792
0.00085367
0.000836402
0.00086502
0.000909072
0.000907014
0.000869231
0.000814328
0.00075748
0.000698267
0.000622534
0.000493319
0.000154846
0.000185528
0.000545996
0.0006802
0.000757011
0.00080848
0.000849182
0.000884891
0.000910511
0.000883888
0.000773773
0.000792263
0.00091431
0.000976433
0.000955216
0.000894933
0.000829
0.000762491
0.000680914
0.00054514
0.00017885
0.000188981
0.000492692
0.000614671
0.000684708
0.000729074
0.000762954
0.000795137
0.000822623
0.000796952
0.00068177
0.000708639
0.000815569
0.000887171
0.000868609
0.00081493
0.000761208
0.000709655
0.00064031
0.000519855
0.000194985
0.000252768
0.00037283
0.000460236
0.000532646
0.000594987
0.000649197
0.000698407
0.000743144
0.00075009
0.000673219
0.000706561
0.000786783
0.000830415
0.000798535
0.000742294
0.000677905
0.000601133
0.000505056
0.000386078
0.000233729
0.000332949
0.000412931
0.000467861
0.000510838
0.000546699
0.000583085
0.000627354
0.000687566
0.000752609
0.000751998
0.000784195
0.000803305
0.000745778
0.000673694
0.000611222
0.000555516
0.000500979
0.000444048
0.000385625
0.000326645
0.000423413
0.000546768
0.000591122
0.000648539
0.000703905
0.000748239
0.00078728
0.000840247
0.000922399
0.000972906
0.000959571
0.000877778
0.000780494
0.000722079
0.000681281
0.000635764
0.000581023
0.000528517
0.000504657
0.000419527
0.000491823
0.000739672
0.000864231
0.000998183
0.00110118
0.00116695
0.00120193
0.00120551
0.0011902
0.00118628
0.00117248
0.00114691
0.00114164
0.00112016
0.00106806
0.000990948
0.000890366
0.00077594
0.000693599
0.00048829
0.000552796
0.000817089
0.00123839
0.00168271
0.00193122
0.00211492
0.00221811
0.00217647
0.00191554
0.00160921
0.00163332
0.00190824
0.00214832
0.00218621
0.00206607
0.00186028
0.00159599
0.00118231
0.000782543
0.000549289
0.000616531
0.000699268
0.000773256
0.000842479
0.000910944
0.000976953
0.00103861
0.00109339
0.0011395
0.00117917
0.00118761
0.00114701
0.00109832
0.0010416
0.000978284
0.000910824
0.000841362
0.000772002
0.000697947
0.000614351
0.000138232
0.000162067
0.000177791
0.000190588
0.000201978
0.000212574
0.000223168
0.000235
0.000246249
0.000256004
0.000255381
0.000247257
0.000236169
0.000223789
0.000212416
0.000201242
0.000189246
0.000175136
0.000156473
0.000127173
0.000167881
0.000518487
0.000649694
0.000722403
0.000772897
0.000811457
0.000840792
0.000843329
0.000770603
0.000619298
0.000685929
0.000861195
0.000915699
0.000893203
0.000837625
0.000774601
0.000707181
0.000624546
0.000488306
0.000152808
0.000186743
0.000556489
0.000698057
0.000783679
0.000844953
0.000888773
0.000910511
0.000868016
0.000688136
0.000552792
0.000610472
0.000745688
0.000918564
0.000960262
0.000916811
0.000847062
0.000770054
0.000680921
0.00054099
0.000176312
0.000197378
0.000489292
0.000604895
0.000684746
0.000743115
0.000790943
0.000822623
0.000786415
0.000608851
0.000635543
0.000730551
0.000668779
0.000823169
0.000878737
0.000837238
0.000769237
0.000695312
0.000610783
0.000490937
0.000192304
0.000237312
0.000372528
0.000478327
0.00056369
0.000633364
0.000693507
0.000743145
0.000740543
0.000598158
0.000751886
0.000895761
0.00068546
0.000786443
0.000817036
0.00076686
0.000697585
0.000618477
0.000521941
0.00039051
0.000210146
0.000318125
0.000390324
0.000451656
0.000509159
0.000567271
0.000627016
0.000687566
0.000725521
0.000641602
0.000854075
0.00103638
0.000732591
0.00077084
0.00073431
0.000662087
0.000586526
0.00050904
0.000432519
0.000364266
0.000317507
0.000419907
0.000505716
0.000560188
0.000638282
0.000716655
0.000781929
0.000840247
0.000897256
0.000871154
0.00105134
0.0011545
0.000873445
0.000848256
0.000779703
0.000717219
0.000649537
0.000570955
0.000497272
0.000466559
0.000416826
0.000493304
0.000730962
0.000844928
0.00098814
0.00110049
0.00117324
0.00120551
0.0012007
0.00117025
0.00123677
0.00130794
0.00116127
0.00114014
0.00112231
0.00107458
0.000990876
0.000878435
0.000750439
0.000673513
0.000489611
0.000559272
0.000823832
0.00128153
0.00167169
0.00193741
0.00211919
0.00217647
0.00201372
0.00172969
0.00173193
0.00180895
0.0017571
0.00197291
0.00211977
0.00206571
0.00186905
0.0015888
0.00120827
0.000781027
0.000555048
0.000629057
0.000717375
0.000796171
0.000870957
0.000946922
0.00102143
0.00109339
0.00116265
0.0012343
0.00131417
0.00132496
0.00124387
0.00116822
0.00109604
0.00102237
0.00094643
0.000869491
0.000794415
0.000715469
0.000626232
0.000135391
0.000156284
0.000172436
0.000186138
0.000199775
0.000214202
0.000229276
0.00024625
0.000261216
0.000273594
0.000274248
0.000267541
0.000252377
0.000233254
0.000217131
0.000202602
0.000187895
0.000171742
0.000152254
0.000125349
0.000165783
0.000509948
0.000642679
0.000731126
0.000801572
0.000844467
0.000853671
0.000770604
0.000587812
0.000716313
0.000776243
0.000680458
0.000849228
0.000893452
0.000857517
0.000796865
0.000723384
0.000631017
0.000482893
0.000150253
0.000187313
0.00056282
0.000714445
0.000814988
0.00089004
0.000924355
0.000883889
0.000688136
0.000585913
0.00110362
0.00114392
0.000642057
0.000753569
0.000910084
0.000928629
0.000876713
0.000796319
0.000698138
0.000548403
0.000174624
0.000200633
0.00046867
0.000596067
0.000700352
0.000779491
0.000826426
0.000796953
0.000608852
0.000726009
0.00159562
0.0016502
0.000810632
0.000672365
0.000820946
0.00085179
0.000796443
0.000718412
0.000626726
0.000503329
0.000191195
0.000225889
0.000372544
0.000493654
0.000588344
0.000671018
0.000738855
0.000750091
0.000598158
0.000903107
0.00206644
0.00215486
0.00105733
0.000667368
0.000781708
0.000786738
0.000721259
0.000637123
0.000541248
0.000421425
0.000202803
0.000310285
0.000375229
0.000443305
0.000525964
0.000617662
0.000703756
0.00075261
0.000641602
0.00103472
0.00240338
0.0025328
0.00122915
0.00069689
0.000772564
0.000728314
0.000638541
0.000536314
0.000435334
0.000351517
0.000308103
0.000414637
0.000473284
0.000538262
0.000639222
0.000748616
0.000848787
0.0009224
0.000871154
0.00119208
0.00257562
0.00270912
0.00133737
0.000855232
0.000862383
0.000781528
0.000676607
0.000562274
0.000467862
0.000431593
0.000411322
0.000490145
0.000702345
0.000817434
0.000965709
0.00108702
0.00116369
0.0011902
0.00117025
0.001354
0.00255831
0.00269875
0.00147284
0.0011353
0.00110032
0.00105283
0.000964634
0.00084207
0.000709493
0.000637101
0.000485853
0.000558921
0.000801778
0.00128743
0.00160138
0.00185103
0.00197852
0.00191554
0.00172969
0.00184279
0.00244852
0.00255983
0.00194193
0.00174374
0.00185684
0.00190753
0.00177632
0.00151227
0.0011942
0.000749284
0.000553476
0.000634268
0.00072628
0.000808466
0.000887661
0.000970759
0.0010542
0.0011395
0.0012343
0.0013492
0.00147484
0.00149027
0.00136007
0.00124122
0.00114238
0.00105459
0.000969606
0.000885404
0.00080585
0.000723358
0.000630235
0.000132285
0.000151379
0.000168198
0.00018213
0.000195122
0.000209416
0.000229976
0.000256004
0.000273594
0.000277136
0.000279689
0.000279474
0.000267243
0.000241133
0.000218346
0.00020028
0.00018335
0.000166188
0.000147265
0.000123743
0.000163288
0.000496193
0.000620345
0.000710217
0.000796668
0.000857295
0.000836404
0.0006193
0.000716313
0.000453958
0.000500895
0.000789167
0.000678404
0.000867862
0.000867221
0.000814629
0.00073549
0.000634272
0.00047709
0.000147362
0.0001888
0.000572068
0.000733647
0.000845464
0.000928115
0.000931499
0.000773775
0.000552794
0.00110362
0.000692006
0.00076886
0.00109786
0.000588902
0.000795539
0.000916898
0.000903569
0.00082591
0.000722312
0.000563666
0.000173793
0.00020333
0.000483319
0.000622224
0.000737863
0.000829674
0.000843462
0.000681771
0.000635543
0.00159563
0.000963179
0.00107648
0.00156344
0.000673307
0.000695869
0.000840136
0.000829496
0.000755155
0.000662933
0.000535744
0.00019371
0.000226409
0.000375581
0.000500655
0.000615213
0.000718562
0.000778494
0.000673221
0.000751886
0.00206644
0.00126828
0.00142481
0.00204997
0.000820852
0.000687867
0.000798259
0.000758901
0.000661391
0.00055957
0.000451178
0.000210461
0.000309019
0.000367334
0.000446266
0.000564898
0.000696318
0.000799702
0.000751999
0.000854075
0.00240338
0.00159366
0.00179428
0.00242255
0.000940816
0.000750211
0.000803712
0.000715445
0.000589458
0.000459777
0.000348714
0.000304539
0.000410241
0.000458612
0.000528166
0.000651887
0.000809101
0.000954193
0.000972908
0.00105134
0.00257562
0.00190309
0.00213883
0.00260743
0.00109662
0.000919571
0.00088475
0.000735052
0.000571331
0.000454418
0.000419682
0.000406963
0.000483759
0.000670235
0.000792449
0.000943303
0.00107663
0.00116369
0.00118628
0.00123677
0.00255831
0.00213263
0.00238661
0.00261344
0.00126898
0.00110385
0.00104087
0.00094009
0.000807182
0.000677328
0.000604604
0.000479218
0.000551196
0.000753908
0.00127017
0.0014968
0.00169809
0.00173582
0.00160922
0.00173193
0.00244852
0.00228722
0.00252453
0.00250896
0.00179072
0.00159818
0.00166898
0.00162256
0.00140484
0.00117458
0.000695972
0.000544896
0.000628621
0.000722596
0.000806447
0.000889056
0.000979302
0.00107334
0.00117917
0.00131417
0.00147484
0.00151582
0.00156693
0.00148095
0.0013179
0.00118111
0.00107273
0.000977014
0.000885413
0.000802749
0.0007186
0.000623224
0.000130787
0.000149836
0.000166933
0.000180772
0.000192808
0.000205439
0.000226413
0.000255382
0.000274249
0.000279689
0.000274003
0.000270236
0.000257648
0.00023177
0.000209759
0.000192229
0.000175836
0.000159762
0.000142683
0.000122381
0.000160213
0.000481609
0.000598614
0.000689091
0.000782144
0.000862303
0.000865023
0.000685932
0.000776245
0.000500896
0.000515712
0.000795325
0.000705163
0.000866346
0.000863883
0.000810586
0.000728722
0.000625344
0.000468195
0.000144523
0.000188573
0.00057297
0.000737729
0.000855338
0.000944135
0.000946509
0.000792267
0.000610473
0.00114392
0.000768861
0.00079493
0.00110417
0.00062022
0.000791534
0.000914874
0.000912386
0.000837595
0.000734094
0.000573007
0.00017267
0.00020427
0.000496581
0.000640208
0.000762862
0.000859537
0.000866221
0.000708642
0.000730552
0.0016502
0.00107649
0.00111791
0.00158321
0.000743569
0.000713198
0.000847399
0.000848981
0.000778666
0.000686285
0.00055497
0.000194819
0.000228474
0.000380145
0.000509834
0.000638589
0.000749783
0.000805892
0.000706564
0.000895763
0.00215487
0.00142481
0.00148666
0.00209073
0.0009345
0.000726428
0.000818873
0.000784854
0.000687381
0.000578841
0.000462336
0.000213229
0.000319787
0.000371981
0.00045231
0.000579373
0.000719299
0.000826235
0.000784199
0.00103639
0.00253281
0.00179429
0.00187936
0.00249593
0.00109008
0.000798216
0.000837634
0.000750987
0.000621016
0.000477039
0.000355197
0.000316833
0.000421563
0.000477722
0.000538594
0.00064831
0.000789076
0.000926998
0.000959575
0.0011545
0.00270913
0.00213883
0.00224399
0.00269579
0.00120305
0.000938719
0.000882742
0.000734031
0.00058151
0.000475741
0.000447502
0.000417421
0.00049452
0.000705084
0.000820263
0.000954747
0.00106806
0.00114128
0.00117248
0.00130794
0.00269876
0.00238661
0.00250183
0.00270896
0.00135385
0.00113249
0.00105752
0.000963294
0.000841552
0.000718048
0.000640224
0.000488853
0.000561414
0.000794718
0.00130753
0.00152833
0.00172017
0.00174255
0.00163332
0.00180895
0.00255983
0.00252454
0.0026337
0.00257918
0.00185928
0.00164479
0.00170565
0.00166759
0.0014577
0.00123197
0.0007468
0.00055504
0.000637059
0.000730944
0.000814732
0.00089678
0.000986511
0.0010805
0.00118761
0.00132496
0.00149027
0.00156693
0.0015724
0.00147725
0.00131655
0.00118187
0.00107531
0.000981617
0.000891888
0.000810502
0.000726952
0.000632119
0.000130607
0.000150429
0.000167342
0.000180523
0.000191624
0.000205239
0.000224188
0.000247257
0.000267541
0.000279474
0.000270236
0.000253695
0.000235723
0.000214949
0.00019823
0.000183697
0.000170025
0.00015647
0.000141248
0.000121976
0.000157028
0.000474862
0.00059443
0.000690016
0.000790136
0.000875332
0.000909075
0.0008612
0.000680462
0.00078917
0.000795325
0.000709597
0.000863503
0.00087995
0.000842443
0.000781444
0.000703545
0.000603003
0.000454967
0.000142682
0.000185596
0.000560234
0.000724913
0.000844797
0.000941531
0.000974703
0.000914313
0.000745691
0.000642061
0.00109787
0.00110418
0.000647444
0.000765926
0.000895841
0.00093308
0.000900514
0.000824061
0.000722949
0.000566202
0.000171525
0.000201693
0.000479688
0.000625154
0.000751377
0.000855112
0.000891544
0.000815571
0.000668782
0.000810638
0.00156345
0.00158322
0.000831193
0.000722867
0.000829268
0.000879123
0.000845414
0.000771617
0.000678015
0.000545086
0.000194211
0.000228285
0.000372812
0.000520451
0.000641047
0.00074294
0.000811272
0.000786785
0.000685465
0.00105733
0.00204998
0.00209074
0.00111995
0.000755885
0.000814377
0.000833826
0.00077847
0.000688163
0.000588511
0.000463126
0.000208587
0.000328111
0.000379668
0.000446985
0.000540955
0.000650647
0.000753291
0.000803309
0.000732597
0.00122916
0.00242256
0.00249593
0.00135135
0.000804633
0.000832044
0.00079391
0.000700159
0.000583603
0.000458604
0.000362976
0.00032675
0.000432046
0.000507317
0.000548
0.000621652
0.000707841
0.000797264
0.000877781
0.00087345
0.00133738
0.00260744
0.0026958
0.00145433
0.00090812
0.000862696
0.000767591
0.000666517
0.000569126
0.00049539
0.000475991
0.000428438
0.00050526
0.000759676
0.000855815
0.000972968
0.00106428
0.00112183
0.00114691
0.00116127
0.00147284
0.00261345
0.00270897
0.00158483
0.0011864
0.00111663
0.00106291
0.000983789
0.000880276
0.000769264
0.000707114
0.000501246
0.000572114
0.000861174
0.00134235
0.00164206
0.00186886
0.00197922
0.00190824
0.00175711
0.00194193
0.00250897
0.00257919
0.00202399
0.00180703
0.00190526
0.00196018
0.00183577
0.00158862
0.00128264
0.000831956
0.000567863
0.000642909
0.00073479
0.000816579
0.000895183
0.000977503
0.00106087
0.00114701
0.00124387
0.00136007
0.00148095
0.00147725
0.00135565
0.0012404
0.00114346
0.00105741
0.000974148
0.000891744
0.000813373
0.000731759
0.000639173
0.000130964
0.000152204
0.000168598
0.000180559
0.000191505
0.000205649
0.000220249
0.00023617
0.000252378
0.000267243
0.000257648
0.000235724
0.00021848
0.00020392
0.000191993
0.00018079
0.000169496
0.000157961
0.000143581
0.000123372
0.000155237
0.000477749
0.000603748
0.000702747
0.000798972
0.000863977
0.000907018
0.000915703
0.000849231
0.000678406
0.000705164
0.000863503
0.000887602
0.000850971
0.000801045
0.000742864
0.000673787
0.000581293
0.000445509
0.000142747
0.000181747
0.000542972
0.000701808
0.000818063
0.000912225
0.00096635
0.000976437
0.000918567
0.000753573
0.000588906
0.000620222
0.000765927
0.000894619
0.000932979
0.000918012
0.000866389
0.000790522
0.000693374
0.00054441
0.000170707
0.000197742
0.000466355
0.000599694
0.000716292
0.000817094
0.000876836
0.000887175
0.000823172
0.00067237
0.000673313
0.000743572
0.000722868
0.000827339
0.000881235
0.000870972
0.000818694
0.000743267
0.000646333
0.000510308
0.000192101
0.000232782
0.000371209
0.000509468