/*--------------------------------*- C++ -*----------------------------------*\
| =========                 |                                                 |
| \\      /  F ield         | OpenFOAM: The Open Source CFD Toolbox           |
|  \\    /   O peration     | Version:  1.7.1                                 |
|   \\  /    A nd           | Web:      www.OpenFOAM.com                      |
|    \\/     M anipulation  |                                                 |
\*---------------------------------------------------------------------------*/
FoamFile
{
    version     2.0;
    format      ascii;
    class       volScalarField;
    location    "1200";
    object      k;
}
// * * * * * * * * * * * * * * * * * * * * * * * * * * * * * * * * * * * * * //

dimensions      [0 2 -2 0 0 0 0];

internalField   nonuniform List<scalar> 
4000
(
4.26383e-06
4.51939e-06
4.64478e-06
4.69707e-06
4.70272e-06
4.69478e-06
4.66979e-06
4.57586e-06
4.3856e-06
4.17734e-06
4.07577e-06
4.06356e-06
4.08837e-06
4.09921e-06
4.09935e-06
4.17705e-06
4.23855e-06
4.19834e-06
4.0207e-06
3.63854e-06
5.75054e-06
6.37956e-06
6.62241e-06
6.76726e-06
6.88178e-06
6.89678e-06
6.8286e-06
6.72584e-06
6.56744e-06
6.37492e-06
6.13496e-06
5.88635e-06
5.74599e-06
5.69986e-06
5.70705e-06
5.76808e-06
5.81404e-06
5.78959e-06
5.6541e-06
4.78159e-06
8.99947e-06
8.71246e-06
8.10175e-06
7.69579e-06
8.22776e-06
8.34536e-06
8.20063e-06
8.31033e-06
8.36402e-06
8.49488e-06
8.47138e-06
8.20386e-06
7.8632e-06
7.62387e-06
7.57739e-06
7.51754e-06
7.46929e-06
7.24955e-06
7.29695e-06
7.27262e-06
2.39351e-05
1.94483e-05
1.56238e-05
1.33902e-05
1.18962e-05
1.03355e-05
8.51248e-06
9.27964e-06
9.60767e-06
9.87705e-06
9.9651e-06
9.71441e-06
9.32502e-06
8.89445e-06
8.40823e-06
1.02189e-05
1.24728e-05
1.52566e-05
1.93502e-05
2.23254e-05
3.34738e-05
3.16842e-05
2.82782e-05
2.40777e-05
2.01925e-05
1.70577e-05
1.53199e-05
1.3549e-05
1.236e-05
1.2477e-05
1.271e-05
1.26666e-05
1.30842e-05
1.49839e-05
1.79565e-05
2.1344e-05
2.51801e-05
2.89466e-05
3.08573e-05
3.16804e-05
3.7174e-05
3.66479e-05
3.49952e-05
3.29592e-05
3.09306e-05
2.88343e-05
2.66673e-05
2.45865e-05
2.35635e-05
2.33953e-05
2.49246e-05
2.61107e-05
2.72374e-05
2.87631e-05
3.11289e-05
3.28506e-05
3.4367e-05
3.55853e-05
3.61022e-05
3.56207e-05
3.96025e-05
4.08628e-05
4.1496e-05
4.2046e-05
4.2641e-05
4.3034e-05
4.29218e-05
4.22855e-05
4.12985e-05
4.04579e-05
4.26314e-05
4.47141e-05
4.57639e-05
4.60499e-05
4.5736e-05
4.4873e-05
4.36767e-05
4.22798e-05
4.04926e-05
3.82756e-05
4.17289e-05
4.50643e-05
4.83597e-05
5.14554e-05
5.42213e-05
5.63985e-05
5.77466e-05
5.81047e-05
5.73877e-05
5.5937e-05
5.84056e-05
6.0939e-05
6.17435e-05
6.1065e-05
5.92474e-05
5.65422e-05
5.31474e-05
4.92514e-05
4.49437e-05
4.06575e-05
4.41614e-05
4.98005e-05
5.55553e-05
6.08731e-05
6.56804e-05
6.97336e-05
7.27714e-05
7.44687e-05
7.43846e-05
7.23888e-05
7.50935e-05
7.79577e-05
7.8162e-05
7.61948e-05
7.27126e-05
6.8132e-05
6.26989e-05
5.66153e-05
4.99123e-05
4.33496e-05
4.74776e-05
5.59163e-05
6.43164e-05
7.1928e-05
7.89096e-05
8.50954e-05
9.02302e-05
9.39072e-05
9.5481e-05
9.38648e-05
9.64101e-05
9.81306e-05
9.66074e-05
9.28304e-05
8.7498e-05
8.10203e-05
7.36241e-05
6.54268e-05
5.62513e-05
4.69139e-05
4.51939e-06
5.34498e-06
5.78434e-06
6.04573e-06
6.19917e-06
6.36815e-06
6.50962e-06
6.31784e-06
5.87045e-06
5.49533e-06
5.37489e-06
5.41091e-06
5.53481e-06
5.69284e-06
5.80224e-06
5.76812e-06
5.61247e-06
5.3018e-06
4.82154e-06
3.89597e-06
6.37956e-06
9.70943e-06
1.02554e-05
1.06717e-05
1.13506e-05
1.19978e-05
1.21082e-05
1.18308e-05
1.15439e-05
1.13128e-05
1.10363e-05
1.07859e-05
1.07387e-05
1.09863e-05
1.1553e-05
1.15431e-05
1.07715e-05
9.90769e-06
8.7734e-06
5.24217e-06
8.71246e-06
1.06951e-05
1.24313e-05
1.47755e-05
1.52691e-05
1.47339e-05
1.44468e-05
1.38666e-05
1.36527e-05
1.37618e-05
1.37631e-05
1.34152e-05
1.29567e-05
1.27971e-05
1.33892e-05
1.3187e-05
1.35302e-05
1.41063e-05
1.21462e-05
7.12205e-06
1.94483e-05
2.05757e-05
1.87795e-05
1.79681e-05
1.7824e-05
1.74251e-05
1.76493e-05
1.55476e-05
1.42747e-05
1.42759e-05
1.44116e-05
1.40343e-05
1.39224e-05
1.53686e-05
1.81259e-05
1.7333e-05
1.71236e-05
1.83547e-05
1.97628e-05
1.79802e-05
3.16841e-05
3.74102e-05
3.38164e-05
2.83209e-05
2.36424e-05
2.03508e-05
1.87138e-05
1.74288e-05
1.57399e-05
1.47595e-05
1.48365e-05
1.532e-05
1.69986e-05
1.94588e-05
2.17512e-05
2.43035e-05
2.89175e-05
3.3592e-05
3.537e-05
2.94842e-05
3.66478e-05
3.95175e-05
3.91122e-05
3.69629e-05
3.3419e-05
2.9406e-05
2.62231e-05
2.37522e-05
2.2189e-05
2.13294e-05
2.2002e-05
2.31865e-05
2.46e-05
2.68603e-05
3.04162e-05
3.46314e-05
3.72886e-05
3.84098e-05
3.78724e-05
3.48225e-05
4.08628e-05
4.35545e-05
4.51948e-05
4.60428e-05
4.65402e-05
4.54559e-05
4.19421e-05
3.77418e-05
3.45671e-05
3.33124e-05
3.53859e-05
3.84498e-05
4.17359e-05
4.52546e-05
4.81294e-05
4.80596e-05
4.67385e-05
4.4841e-05
4.21902e-05
3.94563e-05
4.50643e-05
4.94868e-05
5.36939e-05
5.76538e-05
6.14932e-05
6.41447e-05
6.48975e-05
6.34859e-05
6.00003e-05
5.63056e-05
6.02724e-05
6.65735e-05
6.99082e-05
7.00894e-05
6.77548e-05
6.37561e-05
5.8892e-05
5.38279e-05
4.84923e-05
4.40013e-05
4.98005e-05
5.83878e-05
6.64476e-05
7.37162e-05
8.08185e-05
8.69218e-05
9.11652e-05
9.26369e-05
8.99462e-05
8.31506e-05
8.85788e-05
9.76011e-05
0.00010029
9.76853e-05
9.19088e-05
8.43402e-05
7.58616e-05
6.72999e-05
5.79369e-05
4.90194e-05
5.59163e-05
6.65821e-05
7.76705e-05
8.82563e-05
9.83839e-05
0.000107701
0.000115748
0.000121811
0.000124893
0.000123733
0.000126629
0.000127884
0.000124747
0.000118437
0.000110071
0.000100386
8.98228e-05
7.86839e-05
6.69081e-05
5.54862e-05
4.64479e-06
5.78434e-06
6.37856e-06
6.74971e-06
7.01742e-06
7.36619e-06
7.69197e-06
7.60255e-06
7.14755e-06
6.79142e-06
6.68027e-06
6.70154e-06
6.79204e-06
6.88976e-06
6.86633e-06
6.66623e-06
6.34874e-06
5.90734e-06
5.25779e-06
3.98376e-06
6.62242e-06
1.02554e-05
1.11363e-05
1.19117e-05
1.29906e-05
1.40796e-05
1.46038e-05
1.45904e-05
1.44144e-05
1.41388e-05
1.37781e-05
1.35004e-05
1.34433e-05
1.36389e-05
1.4188e-05
1.41657e-05
1.31691e-05
1.17501e-05
9.89752e-06
5.49557e-06
8.10174e-06
1.24313e-05
1.50221e-05
1.69744e-05
1.72826e-05
1.72727e-05
1.74209e-05
1.69356e-05
1.68625e-05
1.7107e-05
1.7158e-05
1.67919e-05
1.63234e-05
1.6089e-05
1.69233e-05
1.68164e-05
1.61983e-05
1.62351e-05
1.53207e-05
7.99011e-06
1.56238e-05
1.87795e-05
1.93099e-05
1.99887e-05
2.07741e-05
2.12018e-05
2.11098e-05
1.89355e-05
1.76115e-05
1.76294e-05
1.78709e-05
1.76179e-05
1.76983e-05
1.92533e-05
2.32902e-05
2.30881e-05
2.05266e-05
1.95072e-05
1.84183e-05
1.43265e-05
2.82781e-05
3.38164e-05
3.19305e-05
2.80656e-05
2.46838e-05
2.22732e-05
2.11644e-05
2.03849e-05
1.91154e-05
1.79818e-05
1.79521e-05
1.90493e-05
2.11992e-05
2.33564e-05
2.47801e-05
2.56302e-05
2.79781e-05
3.0872e-05
3.14847e-05
2.60243e-05
3.49952e-05
3.91121e-05
3.87436e-05
3.61713e-05
3.21275e-05
2.83379e-05
2.55813e-05
2.35879e-05
2.21035e-05
2.12001e-05
2.16872e-05
2.27515e-05
2.38383e-05
2.55789e-05
2.83761e-05
3.18578e-05
3.51041e-05
3.67118e-05
3.6581e-05
3.30047e-05
4.14959e-05
4.51948e-05
4.61229e-05
4.57036e-05
4.41738e-05
4.08057e-05
3.73878e-05
3.42452e-05
3.20138e-05
3.11447e-05
3.23352e-05
3.36589e-05
3.554e-05
3.81467e-05
4.10856e-05
4.38711e-05
4.46285e-05
4.424e-05
4.29984e-05
4.00523e-05
4.83597e-05
5.36938e-05
5.8618e-05
6.2353e-05
6.49664e-05
6.53046e-05
6.29177e-05
5.92427e-05
5.56545e-05
5.24336e-05
5.53889e-05
6.01201e-05
6.3075e-05
6.5647e-05
6.68797e-05
6.53371e-05
6.16044e-05
5.68521e-05
5.16659e-05
4.72903e-05
5.55553e-05
6.64476e-05
8.15788e-05
9.69082e-05
0.000111526
0.000123667
0.000132583
0.000135985
0.000130697
0.000119559
0.000126299
0.000141047
0.00014628
0.000140858
0.000129206
0.000114651
9.75879e-05
8.04187e-05
6.48228e-05
5.47254e-05
6.43164e-05
7.76705e-05
9.14826e-05
0.000104953
0.000118068
0.000130371
0.000141283
0.000149797
0.000154531
0.000153897
0.000157099
0.000157695
0.000152705
0.000143756
0.00013238
0.000119635
0.000106089
9.21587e-05
7.78355e-05
6.38837e-05
4.69707e-06
6.04574e-06
6.74971e-06
7.17264e-06
7.55219e-06
8.0359e-06
8.55539e-06
8.70626e-06
8.32795e-06
7.96577e-06
7.83435e-06
7.79655e-06
7.78472e-06
7.75942e-06
7.68074e-06
7.36409e-06
6.91563e-06
6.35904e-06
5.54918e-06
4.02567e-06
6.76727e-06
1.06717e-05
1.19117e-05
1.28822e-05
1.41043e-05
1.5379e-05
1.62539e-05
1.66436e-05
1.68284e-05
1.66918e-05
1.63657e-05
1.60404e-05
1.58703e-05
1.58193e-05
1.59068e-05
1.58429e-05
1.47353e-05
1.30009e-05
1.0721e-05
5.65424e-06
7.6958e-06
1.47756e-05
1.69745e-05
1.77975e-05
1.81954e-05
1.89183e-05
1.92884e-05
1.91931e-05
1.95228e-05
2.01281e-05
2.03441e-05
1.98692e-05
1.92922e-05
1.87437e-05
1.90008e-05
1.93824e-05
1.80349e-05
1.66964e-05
1.50068e-05
8.18308e-06
1.33902e-05
1.79682e-05
1.99887e-05
2.15298e-05
2.27462e-05
2.32444e-05
2.26209e-05
2.11017e-05
2.03696e-05
2.08062e-05
2.1316e-05
2.0896e-05
2.08887e-05
2.17219e-05
2.47256e-05
2.66444e-05
2.38766e-05
2.09138e-05
1.78915e-05
1.19791e-05
2.40776e-05
2.83208e-05
2.80656e-05
2.6304e-05
2.45058e-05
2.32934e-05
2.29529e-05
2.25996e-05
2.16063e-05
2.12181e-05
2.16291e-05
2.21726e-05
2.44155e-05
2.63695e-05
2.72029e-05
2.66177e-05
2.64318e-05
2.67687e-05
2.59348e-05
2.17737e-05
3.29591e-05
3.69629e-05
3.61713e-05
3.34876e-05
3.0061e-05
2.7143e-05
2.50731e-05
2.37639e-05
2.32878e-05
2.40656e-05
2.46214e-05
2.40726e-05
2.42948e-05
2.51057e-05
2.67942e-05
2.89146e-05
3.12293e-05
3.30882e-05
3.38289e-05
3.09277e-05
4.20459e-05
4.60427e-05
4.57035e-05
4.38785e-05
4.09549e-05
3.82316e-05
3.59525e-05
3.43104e-05
3.35254e-05
3.38259e-05
3.4216e-05
3.33551e-05
3.33931e-05
3.46293e-05
3.64907e-05
3.86214e-05
4.07451e-05
4.2454e-05
4.34618e-05
4.06459e-05
5.14554e-05
5.76537e-05
6.2353e-05
6.55266e-05
6.72248e-05
6.76552e-05
6.75387e-05
6.62477e-05
6.34881e-05
6.0104e-05
6.22823e-05
6.6093e-05
6.75701e-05
6.72894e-05
6.58271e-05
6.3566e-05
6.18375e-05
5.87871e-05
5.51278e-05
5.03801e-05
6.0873e-05
7.37161e-05
9.69081e-05
0.000124945
0.000153754
0.000172963
0.00018314
0.0001844
0.000174837
0.000157216
0.000164023
0.000184552
0.000192227
0.000186961
0.000173602
0.000153981
0.000123381
9.37949e-05
7.14371e-05
5.99714e-05
7.1928e-05
8.82563e-05
0.000104953
0.000121473
0.000137772
0.000153322
0.000167497
0.000179059
0.000186094
0.000186815
0.000190095
0.000189292
0.000181714
0.00016949
0.000154681
0.000138649
0.00012198
0.00010517
8.81789e-05
7.14121e-05
4.70273e-06
6.19918e-06
7.01743e-06
7.5522e-06
8.01235e-06
8.56997e-06
9.25912e-06
9.73405e-06
9.59324e-06
9.1432e-06
8.90669e-06
8.77001e-06
8.71686e-06
8.72074e-06
8.51678e-06
8.10144e-06
7.51933e-06
6.78875e-06
5.79348e-06
4.02306e-06
6.88179e-06
1.13506e-05
1.29906e-05
1.41044e-05
1.52958e-05
1.65788e-05
1.76489e-05
1.85057e-05
1.92831e-05
1.96362e-05
1.94017e-05
1.8893e-05
1.84117e-05
1.77505e-05
1.71557e-05
1.66735e-05
1.55794e-05
1.37455e-05
1.12593e-05
5.74816e-06
8.22779e-06
1.52692e-05
1.72827e-05
1.81954e-05
1.92094e-05
2.01825e-05
2.06095e-05
2.09961e-05
2.18936e-05
2.31807e-05
2.3716e-05
2.30082e-05
2.19019e-05
2.09611e-05
2.02959e-05
2.03165e-05
1.94e-05
1.72992e-05
1.45387e-05
7.9695e-06
1.18962e-05
1.78241e-05
2.07742e-05
2.27462e-05
2.38741e-05
2.39771e-05
2.32563e-05
2.24022e-05
2.2448e-05
2.39291e-05
2.48387e-05
2.39797e-05
2.33165e-05
2.33968e-05
2.45098e-05
2.65227e-05
2.57363e-05
2.24208e-05
1.79482e-05
9.48823e-06
2.01924e-05
2.36424e-05
2.46837e-05
2.45058e-05
2.41152e-05
2.40502e-05
2.42315e-05
2.40253e-05
2.36019e-05
2.46119e-05
2.54849e-05
2.48554e-05
2.61903e-05
2.79986e-05
2.86443e-05
2.76407e-05
2.57382e-05
2.39763e-05
2.16422e-05
1.81595e-05
3.09305e-05
3.34189e-05
3.21275e-05
3.0061e-05
2.78141e-05
2.59026e-05
2.46411e-05
2.43388e-05
2.55426e-05
2.86896e-05
2.95189e-05
2.67352e-05
2.54686e-05
2.51391e-05
2.56411e-05
2.65505e-05
2.75708e-05
2.86544e-05
2.99732e-05
2.88482e-05
4.26409e-05
4.65401e-05
4.41737e-05
4.09548e-05
3.86218e-05
3.69338e-05
3.59548e-05
3.58639e-05
3.70172e-05
4.0389e-05
3.97106e-05
3.53258e-05
3.3346e-05
3.30687e-05
3.3713e-05
3.48519e-05
3.65477e-05
3.95896e-05
4.3589e-05
4.12942e-05
5.42213e-05
6.14931e-05
6.49664e-05
6.72247e-05
7.04594e-05
7.41164e-05
7.69296e-05
7.80304e-05
7.6483e-05
7.35973e-05
7.42872e-05
7.65691e-05
7.66449e-05
7.3745e-05
6.91851e-05
6.40728e-05
6.00008e-05
5.98028e-05
5.87249e-05
5.31304e-05
6.56804e-05
8.08183e-05
0.000111526
0.000153754
0.000188829
0.000214085
0.000232904
0.000240857
0.000229966
0.000203481
0.00021006
0.000236687
0.000245416
0.000233903
0.000211006
0.000182042
0.000148277
0.000106923
7.81075e-05
6.46884e-05
7.89095e-05
9.83838e-05
0.000118068
0.000137772
0.000157496
0.000177152
0.00019571
0.000211541
0.000222438
0.000226497
0.000229824
0.00022551
0.000213912
0.0001973
0.000178003
0.000157697
0.00013763
0.000117839
9.80502e-05
7.82753e-05
4.69479e-06
6.36818e-06
7.36621e-06
8.03592e-06
8.56999e-06
9.15144e-06
9.96585e-06
1.07288e-05
1.09804e-05
1.05423e-05
1.00931e-05
9.99382e-06
9.98813e-06
9.75407e-06
9.29536e-06
8.72307e-06
8.0342e-06
7.16469e-06
5.9588e-06
3.99119e-06
6.8968e-06
1.19979e-05
1.40796e-05
1.5379e-05
1.65788e-05
1.78717e-05
1.9189e-05
2.04292e-05
2.17336e-05
2.30463e-05
2.32923e-05
2.22242e-05
2.0802e-05
1.94916e-05
1.82188e-05
1.70801e-05
1.58025e-05
1.40019e-05
1.1357e-05
5.73507e-06
8.34538e-06
1.4734e-05
1.72727e-05
1.89184e-05
2.01825e-05
2.10653e-05
2.17288e-05
2.25745e-05
2.39354e-05
2.58046e-05
2.68165e-05
2.57694e-05
2.39374e-05
2.2507e-05
2.11779e-05
2.02197e-05
1.92791e-05
1.74888e-05
1.44157e-05
7.66514e-06
1.03355e-05
1.74252e-05
2.12018e-05
2.32445e-05
2.39772e-05
2.39295e-05
2.35301e-05
2.33787e-05
2.41478e-05
2.65709e-05
2.81172e-05
2.65686e-05
2.49223e-05
2.43145e-05
2.40882e-05
2.44926e-05
2.44496e-05
2.2648e-05
1.87202e-05
8.43912e-06
1.70576e-05
2.03508e-05
2.22732e-05
2.32934e-05
2.40502e-05
2.46732e-05
2.49719e-05
2.49684e-05
2.54477e-05
2.82427e-05
2.98218e-05
2.75016e-05
2.71519e-05
2.81204e-05
2.85596e-05
2.78296e-05
2.56573e-05
2.28006e-05
1.94483e-05
1.55993e-05
2.88342e-05
2.94058e-05
2.83378e-05
2.71429e-05
2.59026e-05
2.49008e-05
2.45581e-05
2.53642e-05
2.82282e-05
3.41127e-05
3.55295e-05
3.00077e-05
2.70793e-05
2.5652e-05
2.49972e-05
2.48707e-05
2.49651e-05
2.52582e-05
2.61093e-05
2.68467e-05
4.30339e-05
4.54558e-05
4.08056e-05
3.82315e-05
3.69337e-05
3.6426e-05
3.6651e-05
3.80436e-05
4.16986e-05
4.95857e-05
4.81475e-05
3.90598e-05
3.47338e-05
3.29633e-05
3.23945e-05
3.25089e-05
3.338e-05
3.58853e-05
4.17608e-05
4.17298e-05
5.63984e-05
6.41446e-05
6.53045e-05
6.76551e-05
7.41164e-05
8.09211e-05
8.65696e-05
8.95037e-05
8.82111e-05
8.58047e-05
8.49619e-05
8.62657e-05
8.63459e-05
8.1681e-05
7.42504e-05
6.61909e-05
5.948e-05
5.82696e-05
6.10734e-05
5.52801e-05
6.97335e-05
8.69216e-05
0.000123667
0.000172962
0.000214085
0.000250572
0.000279065
0.000290611
0.000271285
0.000230448
0.000234256
0.000275103
0.000294083
0.000279637
0.000246848
0.000206293
0.000163516
0.000118368
8.38785e-05
6.86343e-05
8.50953e-05
0.000107701
0.000130371
0.000153322
0.000177152
0.000201481
0.000225068
0.000246123
0.000262301
0.00027202
0.000275608
0.000265533
0.00024844
0.000226468
0.000202033
0.000177019
0.000152764
0.000129824
0.000107143
8.43218e-05
4.6698e-06
6.50964e-06
7.69199e-06
8.55542e-06
9.25915e-06
9.96586e-06
1.0819e-05
1.178e-05
1.25211e-05
1.26843e-05
1.21923e-05
1.1862e-05
1.14113e-05
1.07406e-05
9.9906e-06
9.19358e-06
8.32972e-06
7.31064e-06
5.96971e-06
3.93848e-06
6.82862e-06
1.21082e-05
1.46038e-05
1.6254e-05
1.76489e-05
1.9189e-05
2.08085e-05
2.25911e-05
2.4829e-05
2.80488e-05
2.91663e-05
2.63592e-05
2.34542e-05
2.11488e-05
1.91971e-05
1.7443e-05
1.57269e-05
1.37548e-05
1.10593e-05
5.67563e-06
8.20065e-06
1.44468e-05
1.74209e-05
1.92885e-05
2.06095e-05
2.17288e-05
2.28358e-05
2.42958e-05
2.65243e-05
3.01904e-05
3.20987e-05
2.93582e-05
2.60414e-05
2.36486e-05
2.17554e-05
2.00469e-05
1.84173e-05
1.64154e-05
1.35094e-05
7.5813e-06
8.5125e-06
1.76494e-05
2.11099e-05
2.2621e-05
2.32563e-05
2.35301e-05
2.37789e-05
2.44844e-05
2.65882e-05
3.25446e-05
3.5948e-05
3.0759e-05
2.66207e-05
2.47703e-05
2.3668e-05
2.27061e-05
2.16292e-05
1.96807e-05
1.63679e-05
8.9877e-06
1.53198e-05
1.87138e-05
2.11644e-05
2.2953e-05
2.42315e-05
2.49719e-05
2.53514e-05
2.58795e-05
2.80959e-05
3.65088e-05
4.11774e-05
3.21091e-05
2.81067e-05
2.75616e-05
2.72619e-05
2.65048e-05
2.47605e-05
2.18366e-05
1.78556e-05
1.28551e-05
2.66671e-05
2.6223e-05
2.55813e-05
2.50731e-05
2.46411e-05
2.45581e-05
2.51385e-05
2.69823e-05
3.18624e-05
4.44756e-05
4.94458e-05
3.50167e-05
2.90805e-05
2.65631e-05
2.49597e-05
2.39048e-05
2.31594e-05
2.27709e-05
2.31458e-05
2.51736e-05
4.29217e-05
4.1942e-05
3.73877e-05
3.59525e-05
3.59547e-05
3.6651e-05
3.80817e-05
4.10582e-05
4.7989e-05
6.51645e-05
6.5024e-05
4.56421e-05
3.76467e-05
3.42309e-05
3.24853e-05
3.14226e-05
3.11672e-05
3.26357e-05
3.83112e-05
4.17357e-05
5.77465e-05
6.48973e-05
6.29175e-05
6.75385e-05
7.69295e-05
8.65695e-05
9.4375e-05
9.76026e-05
9.51392e-05
9.85545e-05
9.76347e-05
9.22422e-05
9.32283e-05
8.86991e-05
7.94564e-05
6.87555e-05
5.91814e-05
5.55019e-05
6.10511e-05
5.65765e-05
7.27713e-05
9.11649e-05
0.000132582
0.00018314
0.000232904
0.000279065
0.000314618
0.000322547
0.000282518
0.000245364
0.000249283
0.000281859
0.0003203
0.000312858
0.000274791
0.000225677
0.000173097
0.00012623
8.75789e-05
7.15038e-05
9.02301e-05
0.000115748
0.000141283
0.000167496
0.00019571
0.000225067
0.000254431
0.00028211
0.000306548
0.000328365
0.000332962
0.000310435
0.000284461
0.000255669
0.000225411
0.000195355
0.000166716
0.000140455
0.000114943
8.92668e-05
4.57586e-06
6.31785e-06
7.60257e-06
8.70629e-06
9.73408e-06
1.07288e-05
1.178e-05
1.30602e-05
1.44012e-05
1.56489e-05
1.54473e-05
1.43931e-05
1.31079e-05
1.17596e-05
1.05985e-05
9.52472e-06
8.43798e-06
7.23928e-06
5.78701e-06
3.83325e-06
6.72586e-06
1.18308e-05
1.45904e-05
1.66436e-05
1.85057e-05
2.04292e-05
2.25911e-05
2.54072e-05
2.90783e-05
3.34844e-05
3.58947e-05
3.19053e-05
2.68928e-05
2.29459e-05
2.01681e-05
1.78862e-05
1.57244e-05
1.34353e-05
1.05841e-05
5.52928e-06
8.31036e-06
1.38667e-05
1.69356e-05
1.91932e-05
2.09961e-05
2.25745e-05
2.42959e-05
2.70377e-05
3.23099e-05
5.00206e-05
5.30869e-05
3.61477e-05
2.91854e-05
2.48624e-05
2.22357e-05
2.00494e-05
1.7909e-05
1.55864e-05
1.26968e-05
7.36862e-06
9.27968e-06
1.55476e-05
1.89355e-05
2.11018e-05
2.24022e-05
2.33787e-05
2.44844e-05
2.70522e-05
3.58594e-05
7.64455e-05
8.45739e-05
4.44382e-05
3.01149e-05
2.53361e-05
2.32578e-05
2.1554e-05
1.97009e-05
1.74022e-05
1.42892e-05
8.77116e-06
1.35489e-05
1.74288e-05
2.0385e-05
2.25996e-05
2.40253e-05
2.49684e-05
2.58795e-05
2.82764e-05
4.05588e-05
0.000105239
0.000121439
5.24896e-05
3.14526e-05
2.72371e-05
2.58406e-05
2.45373e-05
2.27785e-05
2.0102e-05
1.58916e-05
1.03978e-05
2.45863e-05
2.37521e-05
2.35879e-05
2.37639e-05
2.43388e-05
2.53642e-05
2.69823e-05
3.05883e-05
4.63553e-05
0.000127947
0.000152394
5.66861e-05
3.32332e-05
2.81342e-05
2.56947e-05
2.37087e-05
2.197e-05
2.08149e-05
2.08354e-05
2.38032e-05
4.22853e-05
3.77416e-05
3.42451e-05
3.43104e-05
3.58639e-05
3.80436e-05
4.10582e-05
4.68636e-05
6.71088e-05
0.000157844
0.000169725
6.92546e-05
4.40362e-05
3.71983e-05
3.3782e-05
3.12684e-05
2.95882e-05
2.96983e-05
3.46221e-05
4.11885e-05
5.81046e-05
6.34857e-05
5.92425e-05
6.62476e-05
7.80303e-05
8.95036e-05
9.76025e-05
9.95187e-05
0.000105078
0.000171893
0.000178821
0.000104879
9.44231e-05
9.09821e-05
8.197e-05
6.97493e-05
5.79285e-05
5.20071e-05
5.88291e-05
5.68434e-05
7.44686e-05
9.26366e-05
0.000135985
0.000184399
0.000240857
0.000290611
0.000322547
0.000309023
0.000277502
0.000332657
0.000338251
0.000279803
0.00030115
0.000314302
0.00028437
0.000232958
0.000175026
0.000127873
8.83011e-05
7.29477e-05
9.39071e-05
0.000121811
0.000149796
0.000179059
0.000211541
0.000246123
0.00028211
0.00031912
0.000359784
0.000407937
0.000414464
0.00036513
0.000321925
0.000283197
0.000246234
0.000210936
0.000178021
0.000148671
0.000120713
9.26751e-05
4.3856e-06
5.87047e-06
7.14758e-06
8.32799e-06
9.59328e-06
1.09805e-05
1.25211e-05
1.44012e-05
1.62026e-05
1.77416e-05
1.77419e-05
1.68425e-05
1.49992e-05
1.28168e-05
1.11182e-05
9.69187e-06
8.34329e-06
6.97246e-06
5.48064e-06
3.72262e-06
6.56747e-06
1.1544e-05
1.44144e-05
1.68284e-05
1.92831e-05
2.17337e-05
2.48291e-05
2.90783e-05
3.54307e-05
8.30481e-05
8.54304e-05
3.6981e-05
3.08407e-05
2.51071e-05
2.12415e-05
1.84221e-05
1.58456e-05
1.32339e-05
1.01635e-05
5.3465e-06
8.36405e-06
1.36528e-05
1.68625e-05
1.95228e-05
2.18937e-05
2.39355e-05
2.65244e-05
3.23099e-05
6.0723e-05
0.000225935
0.000216535
6.00322e-05
3.44153e-05
2.66125e-05
2.29328e-05
2.03573e-05
1.78283e-05
1.5292e-05
1.23538e-05
7.22639e-06
9.6077e-06
1.42747e-05
1.76115e-05
2.03697e-05
2.24481e-05
2.41478e-05
2.65882e-05
3.58594e-05
9.94076e-05
0.0003939
0.000378057
0.000102052
3.97994e-05
2.71284e-05
2.34147e-05
2.10653e-05
1.88584e-05
1.64841e-05
1.3628e-05
8.66802e-06
1.236e-05
1.57399e-05
1.91154e-05
2.16063e-05
2.36019e-05
2.54477e-05
2.80959e-05
4.05588e-05
0.000144636
0.000566078
0.00054978
0.000158077
4.65521e-05
2.89378e-05
2.53194e-05
2.31778e-05
2.0971e-05
1.84498e-05
1.50158e-05
9.64068e-06
2.35633e-05
2.2189e-05
2.21034e-05
2.32878e-05
2.55426e-05
2.82282e-05
3.18624e-05
4.63553e-05
0.000178678
0.000692401
0.000681941
0.000200949
5.21582e-05
3.20474e-05
2.76178e-05
2.45129e-05
2.15943e-05
1.93965e-05
1.90816e-05
2.24379e-05
4.12984e-05
3.45669e-05
3.20137e-05
3.35253e-05
3.70172e-05
4.16986e-05
4.7989e-05
6.71088e-05
0.000205956
0.000743067
0.000732259
0.000221258
6.67757e-05
4.36971e-05
3.6792e-05
3.17873e-05
2.81017e-05
2.7199e-05
3.14256e-05
4.0099e-05
5.73876e-05
6.00001e-05
5.56544e-05
6.34879e-05
7.64829e-05
8.8211e-05
9.51392e-05
0.000105078
0.000212848
0.000689175
0.000685723
0.000224926
0.000101881
8.73802e-05
7.92624e-05
6.70532e-05
5.42685e-05
4.77995e-05
5.50527e-05
5.5949e-05
7.43845e-05
8.99459e-05
0.000130697
0.000174837
0.000229966
0.000271285
0.000282518
0.000277502
0.00035583
0.000601182
0.000601162
0.000363542
0.000277623
0.000272803
0.000261677
0.000220906
0.000164703
0.00012104
8.47843e-05
7.24984e-05
9.54809e-05
0.000124893
0.000154531
0.000186094
0.000222438
0.000262301
0.000306548
0.000359784
0.000429979
0.000513969
0.000524468
0.000436585
0.000363479
0.000307761
0.00026212
0.000221464
0.000184636
0.00015298
0.000123359
9.38156e-05
4.17735e-06
5.49536e-06
6.79145e-06
7.96581e-06
9.14325e-06
1.05424e-05
1.26843e-05
1.56489e-05
1.77416e-05
1.8219e-05
1.8479e-05
1.83931e-05
1.68937e-05
1.37639e-05
1.12854e-05
9.4953e-06
7.95732e-06
6.53461e-06
5.13012e-06
3.63142e-06
6.37495e-06
1.13129e-05
1.41389e-05
1.66919e-05
1.96363e-05
2.30463e-05
2.80489e-05
3.34845e-05
8.30481e-05
7.29373e-05
7.75212e-05
8.15162e-05
3.44547e-05
2.84228e-05
2.24905e-05
1.89584e-05
1.58993e-05
1.30128e-05
9.80667e-06
5.14717e-06
8.49491e-06
1.37618e-05
1.71071e-05
2.01282e-05
2.31808e-05
2.58047e-05
3.01904e-05
5.00206e-05
0.000225935
0.000138059
0.000148601
0.000204448
4.85175e-05
2.98267e-05
2.41134e-05
2.10665e-05
1.80531e-05
1.52766e-05
1.231e-05
7.15529e-06
9.87708e-06
1.42759e-05
1.76295e-05
2.08063e-05
2.39292e-05
2.65709e-05
3.25446e-05
7.64455e-05
0.0003939
0.000218085
0.000237787
0.00035157
7.42084e-05
3.23611e-05
2.48971e-05
2.17133e-05
1.89185e-05
1.63359e-05
1.37482e-05
8.89843e-06
1.24769e-05
1.47596e-05
1.79819e-05
2.12182e-05
2.4612e-05
2.82428e-05
3.65088e-05
0.000105239
0.000566078
0.000311923
0.000343946
0.000511874
0.000106196
3.69384e-05
2.72417e-05
2.36645e-05
2.01659e-05
1.71655e-05
1.47019e-05
1.04574e-05
2.33952e-05
2.13294e-05
2.12001e-05
2.40656e-05
2.86897e-05
3.41128e-05
4.44757e-05
0.000127947
0.000692401
0.00041274
0.000458391
0.000637772
0.000131922
4.38155e-05
3.2145e-05
2.69725e-05
2.23887e-05
1.88121e-05
1.78514e-05
2.18854e-05
4.04579e-05
3.33123e-05
3.11447e-05
3.3826e-05
4.03891e-05
4.95859e-05
6.51647e-05
0.000157844
0.000743067
0.000504499
0.000562252
0.000688908
0.000155657
5.99831e-05
4.35535e-05
3.44081e-05
2.80745e-05
2.62617e-05
3.0473e-05
3.92367e-05
5.59369e-05
5.63055e-05
5.24335e-05
6.0104e-05
7.35973e-05
8.58047e-05
9.85546e-05
0.000171893
0.000689175
0.000559266
0.000623364
0.000647737
0.000169023
9.06661e-05
7.57127e-05
6.30807e-05
5.02988e-05
4.4475e-05
5.16078e-05
5.44241e-05
7.23888e-05
8.31506e-05
0.000119559
0.000157216
0.000203481
0.000230448
0.000245365
0.000332657
0.000601182
0.000587398
0.000646392
0.000577872
0.000330683
0.000242443
0.0002224
0.000194941
0.000147216
0.000109106
7.7782e-05
7.02683e-05
9.38647e-05
0.000123733
0.000153897
0.000186815
0.000226497
0.00027202
0.000328365
0.000407937
0.000513969
0.000544107
0.0005804
0.000517812
0.000409821
0.000329038
0.000271306
0.000224949
0.000184728
0.000151861
0.000121757
9.17337e-05
4.07578e-06
5.37492e-06
6.68031e-06
7.8344e-06
8.90674e-06
1.00932e-05
1.21924e-05
1.54473e-05
1.77419e-05
1.84791e-05
1.78026e-05
1.72784e-05
1.57382e-05
1.2736e-05
1.04267e-05
8.7551e-06
7.32937e-06
6.05251e-06
4.82816e-06
3.55914e-06
6.13499e-06
1.10364e-05
1.37782e-05
1.63658e-05
1.94018e-05
2.32924e-05
2.91665e-05
3.58949e-05
8.54307e-05
7.75214e-05
7.68889e-05
7.98404e-05
3.54163e-05
2.87108e-05
2.24302e-05
1.86738e-05
1.55436e-05
1.26809e-05
9.51623e-06
4.96034e-06
8.47141e-06
1.37631e-05
1.71581e-05
2.03442e-05
2.37161e-05
2.68166e-05
3.20989e-05
5.3087e-05
0.000216535
0.000148602
0.00014818
0.000195299
5.02292e-05
3.10414e-05
2.47068e-05
2.13413e-05
1.81874e-05
1.53593e-05
1.23498e-05
7.06854e-06
9.96514e-06
1.44117e-05
1.78709e-05
2.13161e-05
2.48388e-05
2.81174e-05
3.59482e-05
8.4574e-05
0.000378058
0.000237788
0.000238814
0.000338833
8.03691e-05
3.54748e-05
2.62781e-05
2.2526e-05
1.94978e-05
1.67398e-05
1.40381e-05
9.00787e-06
1.27099e-05
1.48365e-05
1.79522e-05
2.16292e-05
2.54851e-05
2.9822e-05
4.11776e-05
0.00012144
0.000549781
0.000343946
0.000347926
0.000497572
0.000118444
4.16929e-05
2.90728e-05
2.46648e-05
2.08482e-05
1.75406e-05
1.48994e-05
1.07793e-05
2.49245e-05
2.20019e-05
2.16872e-05
2.46215e-05
2.95191e-05
3.55297e-05
4.94461e-05
0.000152395
0.000681943
0.000458391
0.000466424
0.000627589
0.000150636
4.9424e-05
3.43529e-05
2.85967e-05
2.3723e-05
1.97036e-05
1.87414e-05
2.3672e-05
4.26314e-05
3.53859e-05
3.23352e-05
3.4216e-05
3.97107e-05
4.81477e-05
6.50244e-05
0.000169726
0.000732262
0.000562252
0.000574226
0.000681444
0.000167962
6.25385e-05
4.40981e-05
3.51619e-05
2.95125e-05
2.83182e-05
3.33075e-05
4.12602e-05
5.84057e-05
6.02724e-05
5.53889e-05
6.22824e-05
7.42873e-05
8.49621e-05
9.7635e-05
0.000178822
0.000685726
0.000623365
0.000636482
0.000644999
0.000177611
9.37863e-05
7.83419e-05
6.63753e-05
5.4015e-05
4.80672e-05
5.52844e-05
5.6606e-05
7.50936e-05
8.85789e-05
0.000126299
0.000164023
0.00021006
0.000234257
0.000249284
0.000338252
0.000601163
0.000646393
0.000657441
0.000574348
0.000335002
0.000248209
0.000229289
0.000204235
0.000156619
0.000118547
8.37606e-05
7.28925e-05
9.64102e-05
0.000126629
0.000157099
0.000190095
0.000229824
0.000275608
0.000332963
0.000414464
0.000524469
0.000580401
0.000584401
0.000515434
0.00040915
0.00032959
0.000272726
0.000227202
0.000187564
0.00015493
0.000124689
9.44011e-05
4.06358e-06
5.41095e-06
6.70158e-06
7.7966e-06
8.77006e-06
9.99385e-06
1.18621e-05
1.43932e-05
1.68425e-05
1.83931e-05
1.72785e-05
1.52281e-05
1.3155e-05
1.0949e-05
9.32393e-06
8.02087e-06
6.88297e-06
5.84151e-06
4.76143e-06
3.54807e-06
5.88637e-06
1.0786e-05
1.35005e-05
1.60405e-05
1.88931e-05
2.22243e-05
2.63593e-05
3.19055e-05
3.69812e-05
8.15166e-05
7.98404e-05
3.57364e-05
3.09248e-05
2.45444e-05
2.03336e-05
1.7373e-05
1.48132e-05
1.22787e-05
9.35574e-06
4.85156e-06
8.2039e-06
1.34152e-05
1.67919e-05
1.98693e-05
2.30083e-05
2.57695e-05
2.93585e-05
3.6148e-05
6.00326e-05
0.000204449
0.0001953
5.63075e-05
3.49247e-05
2.73079e-05
2.32451e-05
2.03947e-05
1.7711e-05
1.51668e-05
1.23071e-05
6.98878e-06
9.71445e-06
1.40344e-05
1.7618e-05
2.08961e-05
2.39799e-05
2.65687e-05
3.07593e-05
4.44387e-05
0.000102052
0.000351572
0.000338834
9.81172e-05
4.34775e-05
2.96843e-05
2.47883e-05
2.18259e-05
1.92697e-05
1.67683e-05
1.4008e-05
8.95873e-06
1.26665e-05
1.53201e-05
1.90493e-05
2.21727e-05
2.48555e-05
2.75018e-05
3.21094e-05
5.24903e-05
0.000158078
0.000511876
0.000497573
0.000158058
5.37994e-05
3.2138e-05
2.68724e-05
2.40943e-05
2.13072e-05
1.8588e-05
1.53086e-05
1.03455e-05
2.61106e-05
2.31864e-05
2.27515e-05
2.40727e-05
2.67354e-05
3.00079e-05
3.50169e-05
5.66867e-05
0.000200951
0.000637774
0.00062759
0.000210525
6.21425e-05
3.60393e-05
3.03402e-05
2.68892e-05
2.34838e-05
2.07869e-05
2.06157e-05
2.52065e-05
4.47141e-05
3.84497e-05
3.36589e-05
3.33551e-05
3.53258e-05
3.90599e-05
4.56423e-05
6.92551e-05
0.00022126
0.000688911
0.000681446
0.000230833
7.21607e-05
4.44861e-05
3.66608e-05
3.21118e-05
2.95685e-05
2.99388e-05
3.59856e-05
4.34743e-05
6.0939e-05
6.65736e-05
6.01201e-05
6.60929e-05
7.65691e-05
8.62657e-05
9.22423e-05
0.000104879
0.000224928
0.000647739
0.000645001
0.000234365
0.000107007
8.98203e-05
8.17246e-05
7.04282e-05
5.8996e-05
5.34816e-05
6.22335e-05
5.95248e-05
7.79577e-05
9.76012e-05
0.000141047
0.000184552
0.000236687
0.000275103
0.000281859
0.000279803
0.000363543
0.000577873
0.000574349
0.000367281
0.000283985
0.000279814
0.000272374
0.000233241
0.000178977
0.000135212
9.44779e-05
7.63192e-05
9.81307e-05
0.000127885
0.000157695
0.000189292
0.00022551
0.000265533
0.000310435
0.00036513
0.000436586
0.000517813
0.000515434
0.000433866
0.000363072
0.000308391
0.000263589
0.000223651
0.000187427
0.000155974
0.000126324
9.65238e-05
4.08839e-06
5.53485e-06
6.79209e-06
7.78478e-06
8.71691e-06
9.98817e-06
1.14113e-05
1.31079e-05
1.49993e-05
1.68938e-05
1.57383e-05
1.3155e-05
1.13042e-05
9.86249e-06
8.76e-06
7.78704e-06
6.86466e-06
5.9838e-06
4.94931e-06
3.64339e-06
5.74602e-06
1.07388e-05
1.34434e-05
1.58704e-05
1.84119e-05
2.08021e-05
2.34543e-05
2.6893e-05
3.08408e-05
3.44549e-05
3.54164e-05
3.09248e-05
2.53868e-05
2.09149e-05
1.81988e-05
1.61521e-05
1.42298e-05
1.20912e-05
9.43112e-06
4.87082e-06
7.86324e-06
1.29568e-05
1.63235e-05
1.92924e-05
2.1902e-05
2.39376e-05
2.60416e-05
2.91856e-05
3.44156e-05
4.85178e-05
5.02293e-05