/*--------------------------------*- C++ -*----------------------------------*\
| =========                 |                                                 |
| \\      /  F ield         | OpenFOAM: The Open Source CFD Toolbox           |
|  \\    /   O peration     | Version:  1.7.1                                 |
|   \\  /    A nd           | Web:      www.OpenFOAM.com                      |
|    \\/     M anipulation  |                                                 |
\*---------------------------------------------------------------------------*/
FoamFile
{
    version     2.0;
    format      ascii;
    class       surfaceScalarField;
    location    "1200";
    object      phi;
}
// * * * * * * * * * * * * * * * * * * * * * * * * * * * * * * * * * * * * * //

dimensions      [1 0 -1 0 0 0 0];

internalField   nonuniform List<scalar> 
11200
(
-0.000234406
0.000468779
-0.000234414
-0.000503913
0.000434326
-0.000164857
-0.000698723
0.000353972
-0.000159201
-0.000746566
0.000211116
-0.000163311
-0.000661731
7.1954e-05
-0.000156822
-0.000557109
1.88101e-05
-0.000123462
-0.000484065
-3.19602e-05
-4.11099e-05
-0.000456292
-0.000104013
7.62205e-05
-0.000529424
-0.00013231
0.000205425
-0.000669786
-0.000159833
0.000300184
-0.000814059
-0.000180607
0.000324873
-0.000918084
-0.000177108
0.000281125
-0.000950811
-0.000161345
0.00019406
-0.000933207
-9.78007e-05
8.01751e-05
-0.000924427
2.78141e-05
-3.66253e-05
-0.000866776
7.8633e-05
-0.000136312
-0.000741634
8.51937e-05
-0.000210367
-0.00060573
0.000115363
-0.0002513
-0.000388728
4.87584e-05
-0.000265796
-0.000103602
-0.000285154
-0.000542607
0.00155394
-0.000542614
-0.0010754
0.00134481
-0.000377743
-0.00135395
0.000975903
-0.000343438
-0.00132246
0.000507082
-0.000327495
-0.00117539
0.000238777
-0.000313921
-0.000934538
4.08362e-05
-0.000262898
-0.000685487
-6.51512e-05
-0.000215875
-0.00049986
-9.98127e-05
-0.000189842
-0.00041328
-4.99912e-05
-0.000168917
-0.000435393
1.87992e-05
-0.000156542
-0.000497213
1.9626e-05
-0.000138435
-0.000524342
-4.53136e-05
-0.000104684
-0.000486671
-0.000122031
-7.69969e-05
-0.00035898
-0.00015084
-7.46636e-05
-0.000166459
-6.61201e-05
-9.86096e-05
3.09786e-05
1.41413e-05
-0.000132976
0.000189708
9.55702e-05
-0.000169137
0.000313362
0.000197603
-0.000205928
0.000219159
0.000455065
-0.000312132
0.000670866
-0.00055533
0.000325447
0.000902915
0.000325445
-1.74588e-05
0.00140726
0.000280338
-0.000689398
0.00146797
0.000179791
-0.00130486
0.00113247
-9.96825e-06
-0.00160489
0.000708102
-0.000169314
-0.00163215
0.000291927
-0.000223842
-0.00111366
-0.00039586
-0.000187779
-0.000691067
-0.000216132
-0.000306285
-0.000367006
3.85215e-05
-0.000412591
-0.000112598
0.000251045
-0.000486677
0.000116621
0.000294206
-0.000503823
0.000346701
0.00019335
-0.000468764
0.000585143
5.67656e-05
-0.000417255
0.000909455
-0.000114491
-0.00036067
0.00138073
-0.000255987
-0.000281419
0.00137649
0.000279012
-0.000260643
0.000992568
0.000676557
-0.000197076
0.00037979
0.000851858
-4.14986e-05
-0.000119689
0.000788632
0.000165875
0.000510308
4.08194e-05
0.00164888
-0.00239495
0.00164889
0.00230868
-0.000727817
0.00147517
0.00223087
0.000350908
0.00119476
0.00168782
0.000780996
0.000894435
0.000910783
0.000844136
0.000640945
-5.63312e-05
0.000758767
0.000500233
-0.000733681
0.000191789
8.96941e-05
-0.000818542
0.000195477
-0.000326755
-0.000532814
0.000310447
-0.00055767
-4.88847e-05
0.000499698
-0.000732611
0.000466359
0.000554064
-0.000775135
0.000877766
0.000443095
-0.00066118
0.00102441
0.000372274
-0.000462169
0.000751921
0.000406393
-0.000248411
-4.49658e-05
0.000418885
0.000122007
-0.00105944
0.000712874
0.000580591
-0.00176225
0.000532419
0.0008469
-0.00198317
-0.000138985
0.00121171
-0.00147138
-0.00127307
0.00154987
-0.00265078
0.00168967
0.00154779
-0.00549054
0.00154779
0.00264596
-0.00353386
0.00170787
0.00320962
-0.0019051
0.00169233
0.00328968
-0.00084956
0.00155047
0.00304653
-0.000286064
0.00137334
0.00261214
5.77313e-06
0.00118735
0.00158495
0.00024259
0.000976348
0.000561283
0.000525858
0.000693253
-3.99653e-05
0.00059411
0.000317547
-0.000118281
0.00059432
-1.63559e-05
-2.81534e-05
0.000518987
-5.51021e-05
-0.000241455
0.000455571
0.000200781
-0.000909161
0.000409885
0.000630059
-0.001827
0.0003092
0.001015
-0.00268687
-3.94147e-05
0.00131814
-0.00294961
-0.000561449
0.00153703
-0.00284515
-0.00128413
0.00171208
-0.00234332
-0.00246919
0.00182838
-0.00139091
-0.00402446
0.00179897
-0.00561175
0.00157005
0.000769547
-0.00702963
0.000769543
0.00115345
-0.0051509
0.00123312
0.00126681
-0.00356897
0.0015505
0.00119922
-0.00253852
0.00175655
0.000974325
-0.00190186
0.00184069
0.000671138
-0.00147473
0.00178368
0.0003474
-0.00108187
0.00164818
0.000100072
-0.00072471
0.00149786
-0.000116508
-0.000524918
0.00133556
-0.000243435
-0.000486696
0.0012079
-0.000210235
-0.000751195
0.00123694
-0.000253686
-0.000919629
0.00141862
-0.000375056
-0.00109799
0.00162922
-0.000483288
-0.00135178
0.00176919
-0.000669605
-0.00173277
0.00187966
-0.000893232
-0.00224288
0.00190505
-0.00101238
-0.00295449
0.0017895
-0.00102811
-0.00402887
0.0015754
-0.000758623
-0.00554234
0.00124839
-0.00710554
0.000735167
0.000162019
-0.00735367
0.000162007
-0.000104693
-0.00576576
0.000881562
-0.000494669
-0.0044947
0.00131569
-0.000792572
-0.00379906
0.00155843
-0.000987127
-0.00339462
0.0016873
-0.00104909
-0.00314365
0.00173088
-0.000921377
-0.00292001
0.0017104
-0.000629278
-0.00269738
0.00168056
-0.0003239
-0.00251056
0.00168024
-0.000122371
-0.00241631
0.00172807
0.000181855
-0.00273911
0.00168367
0.000580563
-0.00296094
0.00164258
0.000941963
-0.00312065
0.00166124
0.00116863
-0.00327143
0.00169297
0.00119014
-0.00344576
0.00169148
0.00100842
-0.00369226
0.00163108
0.000657289
-0.00410712
0.00150375
0.000166098
-0.00481084
0.00127315
-0.000202533
-0.00602551
0.000851791
-0.00740338
9.52887e-05
-0.000379601
-0.00659447
-0.00037961
-0.0011421
-0.00543401
0.000430736
-0.00175702
-0.00466859
0.000788795
-0.00211925
-0.00436061
0.000923759
-0.00220093
-0.00423049
0.000917532
-0.0020266
-0.0041801
0.000862106
-0.00161958
-0.00412483
0.000797782
-0.00104432
-0.00402517
0.000752511
-0.000448912
-0.00388554
0.000779556
2.4299e-06
-0.00377025
0.00090257
0.00051306
-0.00401535
0.000765584
0.00115221
-0.00422693
0.000626828
0.00175361
-0.00435057
0.000628491
0.00219172
-0.00440253
0.00069297
0.00239259
-0.00441581
0.000769153
0.00231027
-0.00444315
0.00083319
0.00190822
-0.00455799
0.000852894
0.00121662
-0.00485599
0.000736723
0.000371592
-0.00558262
0.000402122
-0.00662524
-0.000406561
-0.00106629
-0.00446189
-0.0010663
-0.00222311
-0.00381148
-0.00046574
-0.00298739
-0.00355842
-0.000345909
-0.00334716
-0.00361368
-0.000387167
-0.00332503
-0.00375751
-0.000495126
-0.00297222
-0.00392352
-0.000609414
-0.00233274
-0.0040616
-0.000702728
-0.00148342
-0.0041343
-0.000740221
-0.000599653
-0.00411464
-0.000654693
6.31768e-05
-0.00403285
-0.000400248
0.00079096
-0.00416366
-0.000579495
0.00169713
-0.00427246
-0.000860674
0.00254323
-0.00427218
-0.000924513
0.00317773
-0.00417768
-0.000859364
0.00352651
-0.00402561
-0.000739
0.00353488
-0.00385293
-0.000598615
0.00314307
-0.00370627
-0.000459935
0.00232195
-0.00364558
-0.000389314
0.0010948
-0.00387732
-0.000478161
-0.00447296
-0.00105751
-0.00223095
-0.00223096
-0.00370729
-0.00233516
-0.00449439
-0.00277134
-0.00482598
-0.00328211
-0.00475006
-0.00383345
-0.00429523
-0.00437838
-0.00347839
-0.00487845
-0.00233586
-0.00527684
-0.000982199
-0.00546832
0.000166117
-0.00518119
0.00135119
-0.00534875
0.00265418
-0.00557546
0.00375156
-0.00536958
0.00453879
-0.00496493
0.00497773
-0.00446457
0.00503859
-0.00391381
0.00467831
-0.00334602
0.00383763
-0.00280493
0.00228605
-0.00232577
-0.00218693
-0.000164854
0.000434324
-0.000503923
-0.000377292
0.000424842
-0.000377299
-0.000550454
0.000331984
-0.000318059
-0.000595541
0.000169235
-0.000287494
-0.000502796
4.51916e-06
-0.000254113
-0.00036025
-7.13876e-05
-0.000194636
-0.000276826
-3.70682e-05
-8.74842e-05
-0.000284148
8.0675e-08
8.34381e-05
-0.000424557
7.56306e-05
0.000270179
-0.000647377
0.000112018
0.000410964
-0.000870002
0.000114223
0.000433254
-0.0010298
8.91573e-05
0.000351741
-0.00110614
6.86103e-05
0.000201772
-0.00110778
6.25444e-05
1.9249e-05
-0.0010922
0.000106103
-0.000158335
-0.00102785
9.55519e-05
-0.000296244
-0.000893003
4.12171e-05
-0.000386459
-0.000705935
-2.85524e-06
-0.000435541
-0.000428292
-8.58948e-05
-0.000457568
-0.000223662
-0.000489804
-0.000377743
0.00134481
-0.00107541
-0.00070033
0.00106996
-0.000700329
-0.000885638
0.000733515
-0.000559709
-0.000880791
0.000322335
-0.000485476
-0.00077668
2.54791e-05
-0.000439008
-0.000614203
-0.000123644
-0.000373128
-0.00041334
-0.000148978
-0.000304837
-0.000291184
-3.4215e-05
-0.000277721
-0.000285217
0.000149017
-0.000248302
-0.000376341
0.000262618
-0.000216056
-0.000485406
0.0002627
-0.000177884
-0.000563022
0.000198594
-0.000136536
-0.000594328
0.000130462
-0.000107572
-0.000526493
2.01901e-05
-0.000100172
-0.000350445
-4.81306e-05
-0.000120454
-0.000181099
-4.72447e-05
-0.000159552
-5.22735e-05
-2.44516e-05
-0.000232315
1.90915e-05
2.50237e-05
-0.000305192
1.79841e-05
8.77621e-05
-0.000484699
0.000110037
-0.000871058
0.000280334
0.00140726
-1.74617e-05
0.000135315
0.0013599
0.000135318
-0.000234229
0.00119847
8.43048e-05
-0.000676835
0.000837143
-8.22086e-05
-0.000979322
0.000405521
-0.000246882
-0.00105941
3.00499e-05
-0.000297458
-0.000729411
-0.000432262
-0.000234492
-0.000468196
-0.00024696
-0.000354765
-0.000237181
-1.20647e-05
-0.000482557
-7.25755e-05
0.000200203
-0.00058891
5.26902e-05
0.000244202
-0.000610633
0.000193409
0.00014694
-0.000557866
0.000368095
7.1336e-06
-0.000468642
0.000586242
-0.000167898
-0.000390744
0.000944467
-0.000372232
-0.00031555
0.000941696
3.68541e-05
-0.000341984
0.000650972
0.00038493
-0.000315744
0.000247751
0.000611734
-0.000225002
-5.16132e-05
0.000732268
-0.000179286
0.000769639
-0.000670415
0.00147516
-0.000727801
0.00230868
0.00214622
1.76684e-05
0.00214623
0.00221786
0.000528468
0.00179303
0.00184627
0.000717876
0.00138522
0.00121799
0.000660027
0.00101467
0.000523241
0.000497552
0.000727454
-0.000125269
1.55398e-05
0.000290394
-0.000380384
-0.000118207
-0.000200402
-0.000244194
-0.000196293
-0.000509647
7.71032e-05
-0.000103823
-0.000749912
0.000424174
-2.51396e-05
-0.000852898
0.000723503
-7.2304e-05
-0.000741292
0.000752286
4.31615e-05
-0.000527
0.000403061
0.00017329
-0.000240384
-0.000303553
0.000255633
0.000200752
-0.00104518
0.000572636
0.000786423
-0.00158639
0.00057211
0.0012009
-0.00168508
0.000253294
0.00166881
-0.00116877
-0.000298798
0.00206459
-0.000867208
0.00215772
0.00170787
-0.00353384
0.00264596
0.0028742
-0.00231501
0.00287421
0.00349645
-0.00119505
0.00279359
0.00361675
-0.000372145
0.00252018
0.00336872
8.61243e-05
0.00219525
0.00290965
0.000273085
0.00187087
0.00201742
0.00037971
0.00150438
0.00110604
0.00045724
0.00102916
0.000423643
0.000343372
0.000460266
0.000111453
0.000247507
-5.55159e-05
-7.90493e-05
0.000278041
-0.000167802
-0.000542836
0.000376048
0.000216197
-0.00130472
0.000582401
0.000852684
-0.00219998
0.00067705
0.00140648
-0.00300958
0.000456624
0.00192671
-0.00330541
3.37348e-05
0.00237175
-0.00316101
-0.000575407
0.00271519
-0.00257403
-0.00147441
0.0029691
-0.0015299
-0.00252049
0.00297654
-0.0034927
0.00266563
0.00123313
-0.00515088
0.00115344
0.00200426
-0.00385729
0.00200426
0.00239527
-0.00254816
0.0025126
0.00248868
-0.00144158
0.00273258
0.00235166
-0.000667478
0.00273131
0.00199831
-0.000165979
0.00257609
0.00145804
0.0002498
0.00231836
0.000868819
0.00055279
0.00199151
0.000278522
0.000668428
0.00160078
-0.000135927
0.000630905
0.00123893
-0.000458465
0.000583009
0.00125449
-0.000963899
0.000617824
0.00168225
-0.00147313
0.000575544
0.00214528
-0.00185577
0.00037745
0.00245141
-0.00212423
-0.000111379
0.00271612
-0.00228118
-0.000780429
0.00287616
-0.0022344
-0.00168289
0.00285019
-0.00191354
-0.00282312
0.00260324
-0.00121587
-0.00402323
0.00205345
-0.00511763
0.00114421
0.000881567
-0.00576574
-0.000104705
0.00116709
-0.00442834
0.00116708
0.00112441
-0.0031718
0.001982
0.000931988
-0.00213243
0.00244169
0.000688751
-0.00143882
0.00270188
0.00044349
-0.00096231
0.00277247
0.000286903
-0.000547584
0.00266437
0.000162197
-0.000163036
0.00252108
6.78109e-06
0.000113216
0.00239086
-0.000162633
0.000213355
0.00231502
-0.000309257
7.60799e-05
0.00233721
-0.000396555
-9.73468e-05
0.00244503
-0.00044242
-0.000307094
0.00258973
-0.000483752
-0.000593786
0.00270553
-0.000640494
-0.00102498
0.00276181
-0.000876964
-0.00157671
0.00266382
-0.00110789
-0.00234691
0.00239869
-0.00119225
-0.00340284
0.00193722
-0.000921232
-0.00456468
0.00112221
-0.00578747
-0.000156118
0.000430744
-0.005434
-0.00114211
0.000308842
-0.00418455
0.000308829
-0.000103412
-0.00313423
0.00116347
-0.000414106
-0.00246804
0.00157005
-0.000596354
-0.0020361
0.00169705
-0.00064818
-0.00173094
0.00168255
-0.000581546
-0.00145793
0.00164149
-0.000410787
-0.00118321
0.00160192
-0.000204614
-0.000928447
0.00161504
-4.89768e-05
-0.000746989
0.00170726
9.07581e-05
-0.000907751
0.00160967
0.000281568
-0.00115493
0.00149358
0.0004709
-0.00137572
0.00150777
0.000610692
-0.00160117
0.00156054
0.000616142
-0.00184783
0.00158654
0.000447168
-0.0021567
0.00158215
0.000106178
-0.00260997
0.00145693
-0.000336104
-0.00328931
0.00106546
-0.000454706
-0.0042948
0.000250824
-0.00549455
-0.0011542
-0.000465733
-0.00381147
-0.00222312
-0.00109676
-0.00292251
-0.00109677
-0.001679
-0.00239517
-0.000502749
-0.00202453
-0.0022042
-0.000305502
-0.00208846
-0.00210939
-0.000357924
-0.00189003
-0.00204839
-0.000490408
-0.00147029
-0.00197765
-0.000602767
-0.000893377
-0.00187423
-0.000626135
-0.000331822
-0.00172789
-0.000416824
-6.82718e-06
-0.00150903
3.67867e-05
0.000364905
-0.00161845
-0.000240543
0.000954568
-0.00183771
-0.00076757
0.00153705
-0.00195258
-0.00093015
0.00196758
-0.0020276
-0.000863469
0.00218144
-0.00208367
-0.00071704
0.002127
-0.00214415
-0.000556752
0.00176048
-0.0022531
-0.000450305
0.0011416
-0.00245965
-0.000600117
0.000490878
-0.00298805
-0.00113422
-0.00387061
-0.0021906
-0.00233515
-0.0037073
-0.00379642
-0.00379642
-0.00460447
-0.00435848
-0.00498478
-0.00510602
-0.00498254
-0.00594508
-0.00461546
-0.00679386
-0.00388318
-0.00758839
-0.00280052
-0.00823374
-0.00140727
-0.00858946
0.000217407
-0.00831491
0.00176395
-0.00851376
0.00307878
-0.008728
0.00411607
-0.00835947
0.0048265
-0.00770298
0.00518798
-0.00690974
0.00518525
-0.00605524
0.00478434
-0.00519821
0.00393352
-0.00441379
0.00241378
-0.0037941
-0.00364379
-0.000159199
0.000353966
-0.000698728
-0.000318055
0.000331979
-0.000550459
-0.000441404
0.000246661
-0.000441407
-0.000457683
8.79079e-05
-0.000359156
-0.000340783
-9.5993e-05
-0.000275039
-0.00015806
-0.000200222
-0.000177137
-4.84601e-05
-0.000142414
-5.46749e-05
-7.7403e-05
-1.48634e-05
0.000127225
-0.000285326
0.000152541
0.000325539
-0.000617445
0.000249142
0.000493917
-0.000946166
0.000268631
0.000493318
-0.00117994
0.000223775
0.000361718
-0.00130185
0.00016193
0.000161729
-0.0013147
8.87213e-05
-5.66448e-05
-0.00126777
5.39249e-05
-0.00025922
-0.00117192
1.67895e-05
-0.000408903
-0.000991884
-7.9944e-05
-0.000486571
-0.00073081
-0.000182584
-0.00051404
-0.000398659
-0.000267496
-0.000522228
-0.000337848
-0.00055062
-0.00034344
0.000975899
-0.00135396
-0.000559713
0.000733513
-0.000885639
-0.000649741
0.000426677
-0.000649737
-0.00060122
7.4779e-05
-0.00052089
-0.000484155
-0.000205888
-0.000446177
-0.000354136
-0.000329372
-0.000373991
-0.0001946
-0.000318209
-0.000288573
-0.000118539
-0.000132151
-0.000236504
-0.000167434
0.000132379
-0.000179284
-0.000315289
0.000295399
-0.000114509
-0.000476354
0.000309595
-5.78312e-05
-0.000594124
0.000229923
-2.49549e-05
-0.00065749
0.000146365
-2.8676e-05
-0.000625374
1.01017e-05
-5.36963e-05
-0.000462528
-0.000143103
-8.62912e-05
-0.000302582
-0.000158869
-0.000143851
-0.000185674
-0.000186044
-0.000243127
-0.000115357
-0.000191156
-0.00036694
-6.51352e-05
-0.000239972
-0.000562445
-0.000347032
-0.000927003
0.000179787
0.00146797
-0.000689403
8.42993e-05
0.00119847
-0.000234227
-0.000154758
0.000904741
-0.000154752
-0.000446458
0.000506372
-0.000222123
-0.000670481
6.81779e-05
-0.000296934
-0.000708944
-0.000312847
-0.000275511
-0.00046894
-0.000615026
-0.00017767
-0.000295885
-0.000413891
-0.00024608
-0.000132027
-0.000167688
-0.000346374
-1.02372e-05
2.88735e-05
-0.000444222
6.21688e-05
0.000107405
-0.000480897
0.000161452
-9.90396e-06
-0.000417363
0.000280341
-9.60845e-05
-0.000345111
0.00040811
-0.000233933
-0.00027449
0.000679117
-0.000523666
-0.000205994
0.000784901
-0.000319686
-0.000286953
0.000626826
7.31923e-05
-0.000416914
0.000398619
0.000309864
-0.000497824
0.000194123
0.00048545
-0.00070022
0.000601555
-0.00142488
0.00119475
0.000350924
0.00223087
0.00179302
0.000528474
0.00221787
0.00192366
0.0006434
0.00192367
0.00167129
0.00061598
0.00152793
0.00115561
0.000461373
0.00113712
0.000582494
0.000196927
0.000790774
8.96703e-05
-0.00025941
0.000427604
-0.000118952
-0.000485965
8.02952e-05
-4.11944e-05
-0.000566145
-0.000188952
0.000170922
-0.000445468
-0.000487699
0.000398624
-0.000363445
-0.000609772
0.000606949
-0.000450467
-0.000509067
0.000690057
-0.000389859
-0.000316342
0.00042976
-7.91002e-05
-0.000134927
-0.000115237
2.50189e-05
0.000197065
-0.000712181
0.000332832
0.000730844
-0.00114051
0.000542625
0.00115979
-0.00120631
0.00047984
0.00156462
-0.00081971
0.000317247
0.00184617
0.000160538
0.001779
0.00169232
-0.00190508
0.00320963
0.00279358
-0.00119504
0.00349646
0.00341209
-0.000593629
0.0034121
0.0035643
-0.000109213
0.00309316
0.00335718
0.000161522
0.00270221
0.00288459
0.000235085
0.00230529
0.00208877
0.00021795
0.00182283
0.00124412
0.000116511
0.00127132
0.000576939
-0.000120122
0.000681418
0.000268009
-0.000344628
0.000152566
5.52221e-05
-0.000301988
-1.64833e-05
-0.000447061
-5.23148e-05
0.000320317
-0.00124858
0.000292099
0.000972245
-0.0021105
0.000609977
0.00157931
-0.00287133
0.000545256
0.0021673
-0.00320277
0.000261894
0.00277411
-0.00305903
-0.000120439
0.00323452
-0.00250127
-0.000647379
0.00353855
-0.00153162
-0.00122936
0.0035535
-0.00187954
0.00317409
0.0015505
-0.00356895
0.00126681
0.0025126
-0.00254815
0.00239527
0.00306421
-0.00169685
0.00306421
0.00326029
-0.000883757
0.00331105
0.00315276
-0.000261271
0.00326164
0.00276463
0.000145547
0.00305376
0.00216445
0.000398787
0.00273771
0.0014405
0.000497496
0.00233446
0.000681384
0.000428168
0.0018116
2.22972e-05
0.000243073
0.00131031
-0.000604041
0.000311114
0.00126772
-0.00137374
0.000594055
0.00180557
-0.00210056
0.000727644
0.00243654
-0.00260193
0.000694468
0.00286828
-0.00294783
0.000408
0.00319927
-0.00307723
-0.000182339
0.0034498
-0.00293283
-0.000900695
0.00348604
-0.0024498
-0.00172745
0.00320027
-0.0015612
-0.00253838
0.00247386
-0.00359162
0.00129508
0.0013157
-0.00449468
-0.000494679
0.00198201
-0.00317179
0.0011244
0.00223781
-0.00220846
0.0022378
0.00221869
-0.00134109
0.00291815
0.00202357
-0.000644268
0.00327999
0.00166756
-3.34855e-05
0.00330752
0.00126875
0.0002899
0.00317207
0.000828996
0.000485453
0.00297287
0.000338037
0.000563236
0.00274674
-0.000205928
0.000587077
0.00251497
-0.000733738
0.00060258
0.00257355
-0.001175
0.000640217
0.00284013
-0.00153682
0.000610835
0.00306835
-0.00182131
0.000435537
0.00324895
-0.0020723
8.24511e-05
0.00333834
-0.00226027
-0.000589518
0.00325896
-0.00229943
-0.0013619
0.00289905
-0.00205495
-0.00223632
0.00220159
-0.00136739
-0.00317418
0.00107044
-0.00458594
-0.000529201
0.000788802
-0.00466858
-0.00175703
0.00116348
-0.00313423
-0.000103427
0.00113756
-0.00215663
0.00113754
0.000946076
-0.00141418
0.00183462
0.000725087
-0.000872761
0.00214653
0.000559999
-0.000476107
0.00229026
0.000399914
-0.000211016
0.00230249
0.000249647
-2.18911e-05
0.00225953
9.09169e-05
0.000109603
0.0022274
-0.000208024
0.000333194
0.00226008
-0.0004837
0.000284727
0.00220319
-0.000634827
0.00012222
0.0021627
-0.000745468
2.4574e-05
0.00220466
-0.000820601
-0.000164509
0.00223572
-0.000912956
-0.000427646
0.00218898
-0.00108698
-0.000849739
0.00201639
-0.00125408
-0.00142542
0.00168754
-0.00124393
-0.00219065
0.00100964
-0.000807209
-0.00318936
-0.000170738
-0.00479568
-0.00175169
-0.000345905
-0.00355841
-0.0029874
-0.000502737
-0.00239517
-0.00167901
-0.000732936
-0.00169624
-0.000732953
-0.000860334
-0.0013572
-0.000235096
-0.000835477
-0.00111712
-0.00013843
-0.000733884
-0.000923648
-0.000144466
-0.00057651
-0.000726649
-0.000244513
-0.000356347
-0.000499947
-0.000368248
-0.000216736
-0.000213859
-0.000232979
-0.000130867
0.000179933
0.00010417
-8.50595e-05
0.000106214
-0.000107847
0.000103411
-0.000267495
-0.000566335
0.000398019
-0.000514586
-0.000685609
0.000645136
-0.000717239
-0.000557866
0.000799852
-0.000905966
-0.000393448
0.000864463
-0.00110115
-0.000369969
0.000748212
-0.00136252
-0.000396971
0.000533763
-0.00172808
-0.000848258
0.000386803
-0.00245519
-0.00172146
-0.00366088
-0.00293862
-0.00277134
-0.00449439
-0.00435847
-0.00460448
-0.0052066
-0.0052066
-0.00561196
-0.00605787
-0.0056284
-0.00704577
-0.00527324
-0.00807267
-0.00452891
-0.00905937
-0.00338861
-0.009874
-0.001825
-0.0103669
0.000193609
-0.0101536
0.00211892
-0.0103329
0.0036144
-0.010491
0.00472154
-0.0099812
0.00545631
-0.00915499
0.00582091
-0.00818031
0.00581435
-0.00714984
0.00540317
-0.00614957
0.00452481
-0.00526352
0.00287863
-0.00460313
-0.00442606
-0.000163311
0.00021111
-0.000746565
-0.000287492
0.000169227
-0.000595538
-0.000359153
8.79029e-05
-0.000457683
-0.000335585
-4.71669e-05
-0.000335585
-0.000192097
-0.000212573
-0.00020596
1.31792e-05
-0.000317501
-6.48996e-05
0.000166511
-0.000291203
8.32082e-05
0.000138073
-0.000114829
0.000270487
-0.000132769
0.000115096
0.000481264
-0.000612722
0.000269914
0.000703931
-0.00107646
0.000289657
0.000667374
-0.00138771
0.000209033
0.000463907
-0.0015371
0.00010562
0.000205479
-0.00153475
-1.41207e-05
-4.48896e-05
-0.00143144
-0.000110278
-0.000252261
-0.00126768
-0.000179133
-0.000393532
-0.00103473
-0.000261043
-0.000458466
-0.000725127
-0.000356916
-0.000466713
-0.000365565
-0.000420423
-0.00046135
-0.000437617
-0.000478557
-0.000327497
0.000507078
-0.00132247
-0.00048548
0.000322332
-0.000880794
-0.000520896
7.47777e-05
-0.000601217
-0.000432817
-0.000223322
-0.00043281
-0.000288472
-0.000458908
-0.000344166
-0.000147757
-0.000558545
-0.000273635
-6.50248e-06
-0.000548607
-0.000172399
4.68707e-05
-0.000332777
-7.19222e-05
-3.50713e-05
-1.35611e-05
3.12864e-05
-0.000233667
0.000216181
0.000137773
-0.000455914
0.000244773
0.000209253
-0.000629068
0.000151644
0.000205552
-0.000715341
3.31477e-05
0.000130043
-0.000697652
-0.000136323
5.0808e-05
-0.000543896
-0.000342767
-7.5543e-06
-0.000377342
-0.000393461
-9.607e-05
-0.00025695
-0.000402177
-0.000222374
-0.000164071
-0.00044578
-0.00037094
-8.21157e-05
-0.000475985
-0.000588821
-0.000516095
-0.000930622
-9.97144e-06
0.00113247
-0.00130487
-8.22145e-05
0.000837145
-0.000676834
-0.00022213
0.000506373
-0.000446454
-0.000374339
8.10861e-05
-0.000374333
-0.00047188
-0.000341827
-0.00031646
-0.000421177
-0.000699716
-0.00018502
-0.000265954
-0.000824715
-5.67628e-05
-0.000146456
-0.000658279
-4.00622e-05
-2.22226e-05
-0.000419176
-6.49953e-05
7.05523e-05
-0.000177668
-0.000143182
0.000111177
-0.000100136
-0.000176652
0.000158674
-0.000174277
-0.000138966
0.000245853
-0.000294546
-0.000104609
0.000301
-0.000381427
-8.4534e-05
0.000431227
-0.000604563
-7.44144e-05
0.000607998
-0.00070091
-0.000156264
0.000589754
-0.000386495
-0.000414341
0.000447234
-9.82361e-05
-0.000702843
0.000275625
7.20697e-05
-0.00107667
0.00020699
-0.00187234
0.000894426
0.000781007
0.00168782
0.00138521
0.000717882
0.00184628
0.00152792
0.000615983
0.00167129
0.00134768
0.000441541
0.00134769
0.000938209
0.000194725
0.00101002
0.000501918
-0.000215795
0.000743143
0.000178651
-0.000603463
0.000529633
4.33843e-05
-0.000808219
0.000365513
8.90201e-05
-0.000847476
0.000193717
0.000247902
-0.000759904
-6.43476e-05
0.000408113
-0.000674106
-0.000196019
0.000525448
-0.000676943
-0.000123739
0.000635463
-0.000735182
1.4279e-05
0.000497885
-0.000457189
7.84156e-05
0.000123885
-0.000233177
0.000199689
-0.000322649
-5.52298e-05
0.000531706
-0.000694426
0.000306316
0.000838747
-0.000795627
0.000487662
0.00107991
-0.000570579
0.000533463
0.00115972
0.000586281
0.000829119
0.00155046
-0.000849538
0.00328969
0.00252017
-0.000372132
0.00361676
0.00309315
-0.000109207
0.00356431
0.00327644
7.4961e-05
0.00327645
0.00312981
0.000143677
0.00289988
0.00266013
0.000100131
0.00245903
0.00193994
-3.07475e-05
0.00197029
0.00119934
-0.000284648
0.00148835
0.000625636
-0.000600245
0.00100789
0.00035337
-0.000892207
0.000557137
0.000164092
-0.000874464
0.000373153
-0.000263659
-0.000526953
0.000598076
-0.00096459
-0.000143524
0.00108152
-0.00174545
0.000288349
0.00161463
-0.00242701
0.000459544
0.00215612
-0.00280573
0.000356936
0.00274067
-0.00270835
0.000174636
0.00326882
-0.00223043
-5.11105e-05
0.00359941
-0.00140871
-0.000356813
0.00362207
-0.000889523
0.0032412
0.00175655
-0.0025385
0.00119922
0.00273257
-0.00144157
0.00248868
0.00331104
-0.00088375
0.00326029
0.00354751
-0.000397976
0.00354752
0.00349033
-6.62303e-05
0.00352874
0.00313648
0.000173414
0.00333434
0.0025565
0.000256065
0.00303087
0.0018027
0.000185426
0.0026182
0.000981562
-6.41533e-05
0.00209664
0.000173245
-0.000334754
0.00156117
-0.000652941
-0.000235955
0.0014554
-0.00153027
0.00018835
0.00196759
-0.00234882
0.000511519
0.00260005
-0.00290412
0.000613591
0.00309833
-0.00322607
0.000534757
0.00344601
-0.00332806
0.000218335
0.00369039
-0.00316294
-0.000228636
0.00372419
-0.00268149
-0.00073087
0.00339858
-0.00178915
-0.00134839
0.00257309
-0.00262437
0.00124077
0.00155843
-0.00379904
-0.000792582
0.0024417
-0.00213242
0.000931975
0.00291816
-0.00134109
0.00221868
0.00304412
-0.000649901
0.00304411
0.0028508
-1.54734e-05
0.00342256
0.00251136
0.000285845
0.00353454
0.00202948
0.000442408
0.00346761
0.00141951
0.00048562
0.00328265
0.000654379
0.0004488
0.00299892
-0.00023006
0.000416452
0.0026482
-0.00110478
0.000515887
0.00269642
-0.00181209
0.000645747
0.00309003
-0.00231782
0.000711898
0.0033737
-0.00268876
0.00069029
0.00354318
-0.00293641
0.000533113
0.00358763
-0.00308801
0.000185527
0.00344337
-0.00300423
-0.000442196
0.00302882
-0.00254596
-0.0011961
0.00220855
-0.00162253
-0.00209604
0.000894654
-0.00396342
-0.000812704
0.000923764
-0.0043606
-0.00211926
0.00157007
-0.00246803
-0.000414123
0.00183463
-0.00141417
0.000946056
0.00183326
-0.000647149
0.00183324
0.00175088
-0.000166395
0.00237982
0.00153365
0.000194772
0.00259857
0.00122606
0.00043796
0.00261452
0.000856218
0.000566873
0.00254812
0.000384921
0.000673361
0.00247413
-0.000348964
0.000958368
0.00245205
-0.00101003
0.000970967
0.00240917
-0.00140631
0.000779332
0.00242539
-0.0016921
0.000720984
0.00248136
-0.00191002
0.000622291
0.00252163
-0.00207076
0.000409143
0.00247369
-0.00208495
-4.04582e-05
0.00225656
-0.0020069
-0.000535748
0.00170302
-0.00165726
-0.00135753
0.000821412
-0.000927419
-0.00252434
-0.000472299
-0.00454747
-0.00209508
-0.000387162
-0.00361368
-0.00334717
-0.000305491
-0.00220419
-0.00202454
-0.000235081
-0.0013572
-0.000860352
-0.00010183
-0.000913654
-0.000101848
4.63431e-06
-0.000556312
0.000145019
0.000115205
-0.000237769
0.000177504
0.000142507
3.33406e-05
0.000132803
5.1696e-05
0.000258886
3.05475e-05
-9.16932e-05
0.000544685
3.90827e-05
-0.000315196
0.00105569
0.000230348
-0.000452982
0.000987788
1.31119e-05
-0.000520306
0.000523594
-0.00024328
-0.000497619
0.000278467
-0.000265787
-0.000371552
8.69544e-05
-0.000148604
-0.00013937
-0.000148423
-6.80723e-05
5.3892e-05
-0.000487081
-0.000116618
0.000240168
-0.000872059
-0.000246949
0.000367024
-0.00136128
-0.000971381
0.00044987
-0.00226443
-0.00206424
-0.00374687
-0.00328938
-0.00328211
-0.00482599
-0.00510602
-0.00498478
-0.00605786
-0.00561196
-0.0065147
-0.0065147
-0.00654494
-0.00757184
-0.00617833
-0.00867705
-0.00538709
-0.00981728
-0.00413221
-0.01087
-0.00233427
-0.0116202
0.000181414
-0.0116136
0.0025846
-0.0117483
0.00432206
-0.0117048
0.00554551
-0.0109262
0.00633492
-0.00985744
0.00672844
-0.00872225
0.00672191
-0.00763041
0.00627892
-0.00657864
0.00530544
-0.00565134
0.00341476
-0.0049769
-0.00475819
-0.000156824
7.19502e-05
-0.000661725
-0.000254114
4.51415e-06
-0.00050279
-0.000275038
-9.6e-05
-0.000340777
-0.000205959
-0.000212577
-0.000192092
-3.91493e-05
-0.000333614
-3.91456e-05
0.00019315
-0.000431245
0.000134071
0.00038556
-0.000433246
0.000324073
0.000365468
-0.000262233
0.000552823
2.89441e-05
-1.46463e-05
0.000832418
-0.000642116
0.000198148
0.00117682
-0.00126942
0.000195877
0.00109877
-0.00164498
7.82962e-05
0.000761159
-0.00178105
-5.70871e-05
0.000398626
-0.00173013
-0.000206056
0.000110261
-0.00154598
-0.000336467
-9.99266e-05
-0.00130089
-0.000408064
-0.000230533
-0.00101201
-0.00045322
-0.000294092
-0.000676277
-0.000488096
-0.000314315
-0.000320765
-0.000486436
-0.000330398
-0.00043092
-0.000368386
-0.000313921
0.000238774
-0.0011754
-0.000439009
2.54762e-05
-0.000776683
-0.000446182
-0.000205889
-0.000484154
-0.000344174
-0.000458908
-0.000288466
-0.000177096
-0.000667732
-0.000177088
9.11e-06
-0.000805032
-8.60063e-05
0.000169576
-0.000812235
4.61711e-05
0.000234788
-0.000599342
0.000200005
0.000127149
-0.000260755
0.000385036
-0.000126886
3.23312e-05
0.000557586
-0.000438128
8.57693e-05
0.000630569
-0.000682744
-1.90848e-05
0.00054753
-0.000782821
-0.000198557
0.000371589
-0.000760752
-0.000404693
0.00022739
-0.000625992
-0.000593028
0.000114274
-0.000445547
-0.000690439
5.89227e-06
-0.000298422
-0.000680128
-0.000142561
-0.000189338
-0.000651619
-0.000316472
-8.33195e-05
-0.000651216
-0.00053003
-0.000624975
-0.000819861
-0.000169317
0.000708103
-0.0016049
-0.000246887
0.000405523
-0.000979325
-0.000296941
6.81809e-05
-0.000670479
-0.000316467
-0.000341825
-0.000471875
-0.000274987
-0.00075066
-0.000274981
-0.000181902
-0.00101087
-7.22301e-05
-8.01365e-05
-0.00106564
9.49201e-05
8.03097e-06