/*--------------------------------*- C++ -*----------------------------------*\
| =========                 |                                                 |
| \\      /  F ield         | OpenFOAM: The Open Source CFD Toolbox           |
|  \\    /   O peration     | Version:  1.7.1                                 |
|   \\  /    A nd           | Web:      www.OpenFOAM.com                      |
|    \\/     M anipulation  |                                                 |
\*---------------------------------------------------------------------------*/
FoamFile
{
    version     2.0;
    format      ascii;
    class       volVectorField;
    location    "1200";
    object      U;
}
// * * * * * * * * * * * * * * * * * * * * * * * * * * * * * * * * * * * * * //

dimensions      [0 1 -1 0 0 0 0];

internalField   nonuniform List<vector> 
4000
(
(-0.000426017 8.73194e-05 -0.000426044)
(-0.00136109 0.000337867 -0.00019241)
(-0.00217115 0.000443906 -0.000174552)
(-0.00257482 0.000103462 -0.00021031)
(-0.00247806 -0.000393742 -0.000213118)
(-0.0021476 -0.000600398 -0.000150982)
(-0.00181932 -0.000538184 2.38678e-05)
(-0.00159626 -0.000622707 0.00026313)
(-0.0015994 -0.000622734 0.000524471)
(-0.00196506 -0.000582694 0.000724287)
(-0.00256328 -0.000633611 0.000786159)
(-0.003035 -0.000601042 0.000698107)
(-0.00327131 -0.000508768 0.000518031)
(-0.00325382 -0.000371926 0.000288156)
(-0.0031663 -0.000343367 4.78789e-05)
(-0.00307408 -0.00055862 -0.000190064)
(-0.00283266 -0.000379481 -0.000353891)
(-0.00238253 0.000221564 -0.000443751)
(-0.00176954 0.000594479 -0.000466804)
(-0.000754781 0.000139457 -0.000511436)
(-0.000807971 0.00309795 -0.000807993)
(-0.00290637 0.00250069 -0.000661732)
(-0.00443206 0.00178559 -0.000740943)
(-0.00480855 0.0012178 -0.000781455)
(-0.00439068 0.000959154 -0.000775224)
(-0.00366779 0.000788741 -0.000680886)
(-0.00279397 0.00035042 -0.000601211)
(-0.00201072 -0.00027115 -0.000564251)
(-0.00152493 -0.000459293 -0.000528519)
(-0.00142161 -0.000479067 -0.000510767)
(-0.00157765 -0.000522719 -0.000469216)
(-0.00176596 -0.000665021 -0.000366464)
(-0.00177766 -0.000784761 -0.00027443)
(-0.00150349 -0.000451894 -0.000268585)
(-0.000910445 0.000597888 -0.000324227)
(-0.000218897 0.00129974 -0.000374247)
(0.000405712 0.00108229 -0.000437785)
(0.000993603 0.000390808 -0.000503672)
(0.00104465 -0.000437943 -0.000709886)
(0.000511384 -0.0010646 -0.00122475)
(0.00121639 0.00899914 0.00121639)
(0.000823371 0.00744957 0.000978215)
(-0.00092344 0.00525195 0.000570985)
(-0.0037225 0.00230724 -5.93404e-05)
(-0.00536562 0.000418543 -0.000548953)
(-0.00597686 -0.000644235 -0.00068999)
(-0.00471296 -0.00100016 -0.000648638)
(-0.00312603 -0.000509667 -0.000993993)
(-0.00179897 0.000193445 -0.00127734)
(-0.000838814 0.000613475 -0.00148747)
(2.67441e-05 0.000675959 -0.00154341)
(0.000829449 0.000402648 -0.00144616)
(0.0016198 8.23857e-05 -0.00128483)
(0.00254284 -0.000520697 -0.00110094)
(0.00398532 -0.00123913 -0.000869789)
(0.00500839 -0.0013257 -0.00075008)
(0.00439536 -0.000348603 -0.000523007)
(0.00263364 0.00132524 -3.005e-05)
(-0.000103507 0.00433845 0.000692613)
(-0.000649194 0.00681641 0.000715026)
(0.00378789 -0.00191912 0.00378791)
(0.00711668 0.0035779 0.00360521)
(0.00812306 0.00596268 0.00296163)
(0.00697915 0.00568851 0.00221815)
(0.00458311 0.00446484 0.00156034)
(0.00197437 0.00298117 0.00123407)
(-0.00236295 -0.0013925 -0.000166021)
(-0.00297104 -0.00110337 -0.00119629)
(-0.00248387 1.64039e-05 -0.0017719)
(-0.00113969 0.00102431 -0.0021484)
(0.000766416 0.00127629 -0.00221412)
(0.00239364 0.000795759 -0.00193063)
(0.0034807 0.000202106 -0.00136515)
(0.00338592 -0.000155562 -0.000708662)
(0.00212316 -6.94892e-05 0.000209611)
(-0.00251804 0.00379268 0.00161529)
(-0.00506573 0.00558197 0.00227179)
(-0.00675608 0.00505765 0.00316582)
(-0.00634757 0.00175107 0.00390073)
(-0.00341142 -0.00268111 0.00391976)
(0.00269617 -0.0155142 0.00269616)
(0.00741322 -0.00921291 0.00334749)
(0.0102323 -0.00373978 0.00361541)
(0.011591 8.41796e-05 0.0035453)
(0.0113436 0.00193865 0.00325668)
(0.0098914 0.00250316 0.00292377)
(0.00768635 0.00251308 0.00257338)
(0.00360978 0.00265849 0.00199002)
(0.000228085 0.00243649 0.0010863)
(-0.000599147 0.00265071 0.000246479)
(-0.000190308 0.00281252 0.000166437)
(-1.67681e-05 0.00264198 0.00069384)
(-0.00147397 0.00278258 0.00177243)
(-0.00471284 0.00313024 0.0027044)
(-0.00832535 0.00254707 0.00337182)
(-0.0100058 0.00104503 0.00376879)
(-0.0102693 -0.00155515 0.00394659)
(-0.00903113 -0.00591957 0.00389597)
(-0.00661773 -0.0108604 0.00349657)
(-0.00265284 -0.0160193 0.00262918)
(0.00108045 -0.0228615 0.00108043)
(0.00382962 -0.0160898 0.00213388)
(0.00397392 -0.0103619 0.00285705)
(0.00440682 -0.00650721 0.00349471)
(0.00382288 -0.00406659 0.00391276)
(0.00291532 -0.00235846 0.00395307)
(0.00181984 -0.000480589 0.00373771)
(0.000774175 0.00136376 0.00346755)
(-7.83736e-05 0.00207142 0.00317766)
(-0.000778766 0.00196572 0.00304005)
(-0.000816948 0.00126322 0.00301006)
(-0.000738516 0.000938113 0.00321683)
(-0.00103333 0.000392861 0.00364283)
(-0.00156157 -0.000718342 0.00390661)
(-0.00194415 -0.0027408 0.00399476)
(-0.00271573 -0.00515076 0.00383065)
(-0.00336737 -0.00800328 0.00338908)
(-0.00330137 -0.0120974 0.00281802)
(-0.00358892 -0.0176829 0.00209321)
(-0.00132173 -0.0232119 0.000877694)
(-7.9214e-05 -0.0258288 -7.92487e-05)
(0.000866066 -0.0197565 0.00117425)
(-0.00147921 -0.0145677 0.00178845)
(-0.00224555 -0.0114781 0.0021509)
(-0.00322432 -0.00958475 0.00228192)
(-0.00365245 -0.00834723 0.00224538)
(-0.00350145 -0.00726941 0.0021004)
(-0.00271904 -0.00629346 0.00200675)
(-0.00149018 -0.00559149 0.00210277)
(-0.000825311 -0.00537445 0.00242889)
(1.99103e-05 -0.00659439 0.00203772)
(0.00120187 -0.00735842 0.00165147)
(0.00268702 -0.00795755 0.00165247)
(0.00374594 -0.0086298 0.00181849)
(0.00422954 -0.00946861 0.0019697)
(0.00399187 -0.0107553 0.00199642)
(0.00297148 -0.0127547 0.00190874)
(0.00187262 -0.0159152 0.00164495)
(-0.000821779 -0.0208932 0.00108643)
(-0.000215835 -0.0260431 -0.00028905)
(-0.00129775 -0.0243093 -0.00129778)
(-0.00196371 -0.0197934 -8.95764e-05)
(-0.00552331 -0.0165548 -2.1378e-05)
(-0.00692913 -0.0150677 -0.000168773)
(-0.00770031 -0.0143881 -0.00051312)
(-0.00748787 -0.0140682 -0.000899068)
(-0.00642319 -0.0137546 -0.00126303)
(-0.00464526 -0.0133207 -0.0015271)
(-0.00236033 -0.0128032 -0.00153619)
(-0.00087086 -0.0124194 -0.00110596)
(0.000890571 -0.0134957 -0.00159685)
(0.00270373 -0.0142673 -0.00200954)
(0.00506981 -0.0146906 -0.00193052)
(0.00694582 -0.0149009 -0.00162572)
(0.00811379 -0.015035 -0.00122507)
(0.00838226 -0.0152686 -0.000798338)
(0.00755401 -0.0159165 -0.000388846)
(0.00592161 -0.0173787 -0.000145003)
(0.00209324 -0.0204447 -0.00013826)
(0.00108821 -0.0244399 -0.0014348)
(-0.00320498 -0.0187108 -0.00320501)
(-0.00530193 -0.0160029 -0.00240706)
(-0.00952266 -0.0146727 -0.00287076)
(-0.0112499 -0.0146092 -0.00347687)
(-0.0117937 -0.0149863 -0.0041422)
(-0.0110896 -0.0155043 -0.00479249)
(-0.00931541 -0.0159497 -0.00535483)
(-0.00665113 -0.0161942 -0.0057157)
(-0.0033622 -0.0161754 -0.00566779)
(-0.00112358 -0.0159968 -0.00491078)
(0.00161488 -0.0165161 -0.00549457)
(0.00411069 -0.016858 -0.00620897)
(0.00738043 -0.016824 -0.00618832)
(0.0100337 -0.0164907 -0.00576608)
(0.0117959 -0.0159783 -0.00515229)
(0.0124757 -0.015426 -0.00444488)
(0.0118632 -0.0150387 -0.00369544)
(0.00997205 -0.0150877 -0.0029856)
(0.00555501 -0.0163354 -0.00243007)
(0.00312644 -0.0187904 -0.00323462)
(-0.00629335 -0.0118661 -0.00629338)
(-0.0103185 -0.00974028 -0.00688276)
(-0.0146311 -0.00885354 -0.00830315)
(-0.0164065 -0.00875158 -0.00983528)
(-0.0168153 -0.00880272 -0.0114488)
(-0.0158481 -0.00883188 -0.0130359)
(-0.013589 -0.00872003 -0.0144959)
(-0.0101041 -0.00839334 -0.0156693)
(-0.00559456 -0.00782769 -0.0162348)
(-0.00184582 -0.00723225 -0.0153475)
(0.00309374 -0.00757076 -0.0159266)
(0.00679656 -0.0082371 -0.0166026)
(0.0111192 -0.00873772 -0.0159956)
(0.0144807 -0.00899669 -0.0148031)
(0.0166636 -0.00906361 -0.0133351)
(0.017581 -0.00901573 -0.0117249)
(0.0171038 -0.00896819 -0.0100559)
(0.0151827 -0.00907985 -0.00842807)
(0.0106624 -0.00994381 -0.00688263)
(0.00630424 -0.0119478 -0.00622825)
(-0.000192401 0.000337864 -0.00136113)
(-0.000980564 0.000646805 -0.000980585)
(-0.00165908 0.000597297 -0.000839838)
(-0.00206147 0.00020566 -0.000801315)
(-0.00196541 -0.000297427 -0.00075645)
(-0.00154384 -0.00053466 -0.00060902)
(-0.00110835 -0.000332392 -0.00026617)
(-0.000915633 -0.000162258 0.000273929)
(-0.00108954 2.4581e-05 0.000857928)
(-0.00172733 0.000177695 0.00128701)
(-0.00262201 0.000174856 0.00138587)
(-0.00333972 9.25125e-05 0.00118014)
(-0.00375146 5.79787e-05 0.000767235)
(-0.0038369 7.87884e-05 0.000232283)
(-0.00377154 6.23806e-05 -0.000326998)
(-0.00364721 -0.000221702 -0.000780476)
(-0.0033663 -0.000420406 -0.00107278)
(-0.00282894 -0.000338659 -0.00124213)
(-0.00199906 -0.00011884 -0.00132388)
(-0.000863368 -5.64138e-05 -0.00145066)
(-0.000661735 0.00250068 -0.0029064)
(-0.00191026 0.00208736 -0.00191026)
(-0.00285736 0.00149612 -0.00160459)
(-0.00317552 0.000853767 -0.0014481)
(-0.00294406 0.000379344 -0.00135271)
(-0.00245967 0.000133411 -0.00114996)
(-0.00177019 3.30458e-05 -0.000952184)
(-0.00116892 0.000131736 -0.000874597)
(-0.000928831 0.00046442 -0.000791247)
(-0.0010925 0.000711242 -0.000722699)
(-0.00146813 0.000737314 -0.000624069)
(-0.00181954 0.000566036 -0.000478705)
(-0.00202989 0.000342041 -0.000358909)
(-0.00200196 0.000276505 -0.000331138)
(-0.00152395 0.000669386 -0.000417955)
(-0.00087791 0.00104159 -0.0005434)
(-0.000361733 0.000816041 -0.000727297)
(1.34678e-05 0.000300926 -0.000898607)
(8.49872e-05 -0.000624136 -0.00141375)
(5.00257e-05 -0.00183281 -0.00262846)
(0.000978204 0.00744957 0.000823361)
(0.000855314 0.00540011 0.000855326)
(3.71115e-05 0.00368909 0.00057074)
(-0.00162669 0.00136082 -4.60888e-05)
(-0.00307013 -0.000329024 -0.000724941)
(-0.00385909 -0.0012131 -0.000973113)
(-0.00303788 -0.00130062 -0.000780152)
(-0.00211712 -0.000369233 -0.00127207)
(-0.00123007 0.000661878 -0.00171764)
(-0.000526288 0.00118886 -0.00203749)
(-1.6664e-05 0.00122621 -0.00210673)
(0.00042982 0.00101352 -0.00194252)
(0.000984027 0.000749857 -0.00168136)
(0.00165531 -0.000102859 -0.00142077)
(0.00262681 -0.00112834 -0.00111045)
(0.00345473 -0.00150574 -0.00116016)
(0.00296512 -0.00103488 -0.000894455)
(0.00166477 -8.03055e-05 -0.000281608)
(2.42212e-05 0.00145648 0.000408107)
(-0.000344067 0.00298409 -0.000470565)
(0.00360518 0.00357794 0.0071167)
(0.00641123 0.00530532 0.00641127)
(0.00779872 0.00544217 0.00527218)
(0.00725125 0.00447155 0.00402158)
(0.00542726 0.00308954 0.00289037)
(0.00320948 0.00154249 0.00214213)
(0.000288665 -0.00143877 0.000707315)
(-0.00123861 -0.00164735 -0.00109155)
(-0.0012537 -0.000848299 -0.00204471)
(-0.000431256 -1.10387e-05 -0.00278999)
(0.000904549 0.000277251 -0.00306418)
(0.00206319 -0.00022431 -0.00266274)
(0.00273404 -0.000776613 -0.00199143)
(0.00235022 -0.00119152 -0.000997073)
(0.000637181 -0.00102586 0.000664881)
(-0.00271334 0.00195702 0.00250913)
(-0.00476438 0.00413256 0.00367624)
(-0.00589869 0.00473498 0.00517386)
(-0.00523346 0.00414804 0.00656077)
(-0.00292952 0.00277669 0.00709665)
(0.00334748 -0.00921284 0.00741324)
(0.00805584 -0.00531364 0.00805587)
(0.0111598 -0.00151662 0.00782553)
(0.0126526 0.00101179 0.007051)
(0.0123984 0.00195345 0.00612303)
(0.0109633 0.00191463 0.00522306)
(0.00886612 0.00149426 0.00425041)
(0.00530398 0.000976522 0.00294667)
(0.00212088 -0.000240447 0.0012502)
(0.00053713 -0.000736113 -0.000342723)
(0.000157411 -0.000510416 -0.000537925)
(-0.000637529 -0.000141685 0.000781925)
(-0.00281889 0.00122414 0.00267443)
(-0.00602838 0.00248032 0.004206)
(-0.00940915 0.00249288 0.00559828)
(-0.011254 0.00187067 0.00676501)
(-0.011424 0.000261403 0.00772927)
(-0.0100525 -0.00264951 0.00842375)
(-0.00724569 -0.00602833 0.00844769)
(-0.0031315 -0.00904762 0.00754944)
(0.00213389 -0.0160897 0.00382961)
(0.00604351 -0.011617 0.00604351)
(0.00756873 -0.00740399 0.00733989)
(0.00855726 -0.00385575 0.00793979)
(0.00857045 -0.00126261 0.00799217)
(0.00776928 0.00039765 0.0075732)
(0.006119 0.0016305 0.00688891)
(0.00398208 0.00263407 0.00610433)
(0.00186407 0.00298951 0.00528687)
(3.90077e-05 0.00281079 0.0045814)
(-0.000964061 0.0028071 0.00474391)
(-0.00233078 0.00305914 0.00569299)
(-0.00417074 0.00308356 0.00669391)
(-0.00584836 0.00259366 0.0073962)
(-0.00710381 0.00101839 0.00804705)
(-0.00770862 -0.00159065 0.00842347)
(-0.00790936 -0.00461975 0.00823507)
(-0.0071521 -0.00828675 0.00755524)
(-0.0058739 -0.0122466 0.00615971)
(-0.0022201 -0.0159281 0.00377649)
(0.00117426 -0.0197565 0.000866028)
(0.00438698 -0.0151963 0.00438695)
(0.00378856 -0.0106015 0.00651324)
(0.00361203 -0.00664507 0.00766176)
(0.00276068 -0.00386081 0.00831405)
(0.00186685 -0.00187697 0.00856413)
(0.00128004 -0.000337778 0.00846062)
(0.000812416 0.000665074 0.00826703)
(0.000387067 0.00107276 0.00810299)
(-0.000328373 0.00100197 0.00804624)
(-0.000860064 0.000683428 0.00811012)
(-0.00128391 0.000703185 0.00824357)
(-0.0014914 0.00043325 0.00844843)
(-0.00163322 -0.000432091 0.00858771)
(-0.00179263 -0.00206346 0.00855768)
(-0.00253599 -0.00436489 0.00823491)
(-0.00344776 -0.0075232 0.00755686)
(-0.00384824 -0.0115159 0.00639154)
(-0.00451367 -0.0157225 0.00426916)
(-0.00130484 -0.0197151 0.000685574)
(-8.95608e-05 -0.0197933 -0.00196375)
(0.00240838 -0.015537 0.00240835)
(1.84484e-05 -0.0115772 0.00465106)
(-0.000910748 -0.00850512 0.00559812)
(-0.00190324 -0.00636764 0.00581439)
(-0.00226225 -0.00470899 0.00573703)
(-0.00218213 -0.0031275 0.00561433)
(-0.00174417 -0.00149176 0.00555905)
(-0.000922122 2.96137e-05 0.00573598)
(-0.000448339 0.000968379 0.00610194)
(6.56787e-05 0.000120438 0.00571363)
(0.000517976 -0.0011351 0.00522385)
(0.00131459 -0.00240389 0.00515078)
(0.00192861 -0.0037585 0.00529612)
(0.00224871 -0.00520347 0.00545427)
(0.00202364 -0.00689695 0.0055364)
(0.00101489 -0.00915073 0.0053404)
(-0.000113656 -0.0122543 0.00441855)
(-0.00251266 -0.0159619 0.00226628)
(5.2815e-05 -0.0199826 -0.00204044)
(-0.00240704 -0.0160029 -0.00530196)
(-0.00172052 -0.012573 -0.00172055)
(-0.00528505 -0.0103962 -0.000356038)
(-0.00662077 -0.00950516 -0.0001577)
(-0.00732938 -0.00910123 -0.000457306)
(-0.00703672 -0.00896533 -0.000822601)
(-0.00591534 -0.00890685 -0.00111465)
(-0.00412246 -0.00881998 -0.00118623)
(-0.00189465 -0.00867221 -0.000683214)
(-0.000700878 -0.0083367 0.000594742)
(0.000683266 -0.00871095 -0.000326713)
(0.00208923 -0.0091175 -0.00178099)
(0.00433608 -0.00916993 -0.00216504)
(0.00616404 -0.00915305 -0.00193955)
(0.00733569 -0.00916515 -0.00148799)
(0.00767225 -0.00930902 -0.000983689)
(0.00695634 -0.00977184 -0.00053501)
(0.00549218 -0.0107188 -0.000606897)
(0.00184195 -0.0128725 -0.00181482)
(0.00247926 -0.0162275 -0.00522298)
(-0.00688275 -0.00974027 -0.0103185)
(-0.010547 -0.00680043 -0.010547)
(-0.0149823 -0.00517505 -0.012315)
(-0.0168538 -0.00440603 -0.014573)
(-0.0175054 -0.00379142 -0.0170723)
(-0.0168494 -0.00315945 -0.019576)
(-0.0149356 -0.00239486 -0.0218922)
(-0.0117324 -0.00145512 -0.0237592)
(-0.0072595 -0.000340144 -0.024743)
(-0.00284759 0.000893308 -0.0238213)
(0.00424306 0.000548628 -0.0244657)
(0.00833143 -0.000672109 -0.0251937)
(0.0126038 -0.00169291 -0.0241736)
(0.015694 -0.00253553 -0.0222791)
(0.0175663 -0.00323099 -0.019958)
(0.0182096 -0.00383485 -0.0174256)
(0.0175245 -0.00447366 -0.0148563)
(0.0155386 -0.00529438 -0.0124719)
(0.010935 -0.00695685 -0.0105181)
(0.00704693 -0.00990383 -0.010109)
(-0.000174551 0.000443891 -0.00217118)
(-0.000839826 0.000597283 -0.0016591)
(-0.00133755 0.000519472 -0.00133757)
(-0.00162126 0.000166951 -0.00112861)
(-0.00145893 -0.000350039 -0.000927181)
(-0.000923451 -0.00065036 -0.000671858)
(-0.000329753 -0.000462312 -0.000299897)
(-0.000100989 -0.000123195 0.000290765)
(-0.000436115 0.000318666 0.000976803)
(-0.00140703 0.000659499 0.00150277)
(-0.00271251 0.000705651 0.00155434)
(-0.00375364 0.000513816 0.001204)
(-0.00436499 0.000341899 0.000604697)
(-0.00455714 0.000218864 -9.25428e-05)
(-0.00445506 9.36404e-05 -0.000751708)
(-0.00421673 -0.000246001 -0.0012511)
(-0.00378007 -0.000679999 -0.00153222)
(-0.00303008 -0.00092021 -0.00165716)
(-0.00195718 -0.00100581 -0.00170711)
(-0.000818261 -0.00105508 -0.00180806)
(-0.000740949 0.00178556 -0.00443209)
(-0.0016046 0.0014961 -0.00285736)
(-0.00216867 0.00102496 -0.00216865)
(-0.00224735 0.000391568 -0.00181022)
(-0.00193432 -0.000227141 -0.00159847)
(-0.00150018 -0.000591958 -0.0013623)
(-0.000940112 -0.000549861 -0.00109536)
(-0.000480594 -5.37159e-05 -0.000970205)
(-0.00040981 0.000700349 -0.000831328)
(-0.000767456 0.00116835 -0.000674889)
(-0.00135815 0.00122962 -0.000514434)
(-0.00188003 0.000995321 -0.000378358)
(-0.00220211 0.000678089 -0.000316795)
(-0.00229099 0.00029695 -0.000327188)
(-0.00188432 0.000231158 -0.000407539)
(-0.00129253 0.000439169 -0.000567069)
(-0.00078957 0.000249053 -0.000855428)
(-0.00046156 -0.000184261 -0.00118124)
(-0.000334995 -0.000852098 -0.00183441)
(-8.12729e-05 -0.00150292 -0.00315692)
(0.000570974 0.00525194 -0.000923455)
(0.000570727 0.00368909 3.7125e-05)
(8.23677e-06 0.00203965 8.25827e-06)
(-0.00106288 8.9326e-05 -0.000491304)
(-0.00210022 -0.00133905 -0.000978683)
(-0.00257037 -0.00197426 -0.00106528)
(-0.00200595 -0.00190298 -0.000774106)
(-0.0013471 -0.000891673 -0.0011228)
(-0.000770353 0.000236903 -0.00154648)
(-0.000218992 0.00101802 -0.00190999)
(0.000118422 0.00114835 -0.00201187)
(0.000379518 0.00085163 -0.0018007)
(0.000785499 0.000548125 -0.00149922)
(0.00118731 -0.00017866 -0.00122255)
(0.00187443 -0.00136166 -0.0009441)
(0.00251767 -0.00178999 -0.00111017)
(0.00265429 -0.00176876 -0.0013572)
(0.00183589 -0.00129558 -0.00128187)
(0.000912437 -0.000760586 -0.00160336)
(0.000537211 -0.000580744 -0.0039228)
(0.0029616 0.00596269 0.00812306)
(0.00527214 0.00544218 0.00779875)
(0.00665459 0.00456432 0.00665463)
(0.00642381 0.00324354 0.00522085)
(0.00507707 0.00180984 0.00389517)
(0.00307072 4.37261e-05 0.00274715)
(0.000864935 -0.0022719 0.00123299)
(-0.000246039 -0.00236527 -0.000232651)
(-0.000473821 -0.00169316 -0.00129888)
(0.000113747 -0.000877538 -0.00227652)
(0.000996631 -0.000512538 -0.00267565)
(0.00183605 -0.000983357 -0.00227039)
(0.0022908 -0.00145922 -0.00151554)
(0.00221616 -0.00173852 -0.000768515)
(0.00094509 -0.00198775 0.000642534)
(-0.00167009 1.72418e-05 0.00281195)
(-0.00346083 0.00252225 0.00435896)
(-0.00430457 0.00376435 0.00585337)
(-0.00369293 0.00438163 0.00703257)
(-0.00205587 0.00489817 0.00711482)
(0.0036154 -0.00373968 0.0102324)
(0.0078255 -0.00151659 0.0111599)
(0.0109172 0.000363711 0.0109173)
(0.0123759 0.00150861 0.00988743)
(0.012226 0.00165952 0.00862895)
(0.0109732 0.00116799 0.00735379)
(0.0088851 0.000336663 0.00588309)
(0.00567068 -0.00081786 0.00399897)
(0.00271511 -0.00212351 0.00188452)
(0.00110794 -0.00258659 -5.08006e-05)
(0.000602013 -0.00246972 -0.000616314)
(-0.000228796 -0.00233772 0.000737756)
(-0.00257359 -0.000837942 0.00318934)
(-0.00580483 0.00133896 0.0053825)
(-0.00899079 0.00208001 0.00734442)
(-0.0108398 0.00198291 0.00911417)
(-0.011067 0.00144057 0.0105152)
(-0.00978794 -1.8674e-05 0.0114992)
(-0.00705898 -0.00181348 0.011533)
(-0.00336947 -0.00358853 0.0103378)
(0.00285705 -0.0103618 0.00397391)
(0.00733989 -0.00740396 0.00756873)
(0.00970066 -0.0048298 0.00970067)
(0.0110932 -0.00233076 0.0105598)
(0.0113603 -0.00033198 0.0104887)
(0.0104854 0.000844765 0.00984832)
(0.00866186 0.001511 0.00884742)
(0.00622152 0.00186163 0.00760692)
(0.00354812 0.00159605 0.00599556)
(0.00109838 0.000754942 0.00435154)
(-0.000936632 0.000917254 0.00435471)
(-0.00330887 0.00215385 0.00624096)
(-0.00605449 0.00283024 0.00810459)
(-0.00819488 0.00288269 0.00932949)
(-0.00980608 0.00197536 0.0103846)
(-0.010642 5.36559e-05 0.0111008)
(-0.0105514 -0.00233447 0.0110786)
(-0.00939937 -0.0048494 0.0100856)
(-0.00726086 -0.00732302 0.00778671)
(-0.00299406 -0.0102481 0.00404077)
(0.00178846 -0.0145676 -0.00147925)
(0.00651326 -0.0106015 0.00378852)
(0.00734579 -0.00732057 0.00734576)
(0.00781172 -0.00422189 0.0094173)
(0.00738492 -0.001845 0.0105481)
(0.00649568 -0.000249018 0.0108098)
(0.00515366 0.000651477 0.010373)
(0.00365337 0.000938201 0.00974551)
(0.00206641 0.000754644 0.009131)
(0.00024185 0.000475535 0.00869751)
(-0.00170165 0.000710663 0.0088264)
(-0.00331911 0.00130113 0.00939148)
(-0.00473943 0.00162326 0.0100622)
(-0.00587082 0.00140219 0.0105949)
(-0.00679775 0.000356184 0.0108514)
(-0.00750681 -0.00163592 0.0104299)
(-0.00798698 -0.00432905 0.00926826)
(-0.00762993 -0.00744538 0.00716335)
(-0.00673671 -0.0105844 0.00358619)
(-0.00188859 -0.014789 -0.00161666)
(-2.13651e-05 -0.0165548 -0.00552335)
(0.00465109 -0.0115772 1.83905e-05)
(0.00387259 -0.0080288 0.00387253)
(0.00365493 -0.00477927 0.00590759)
(0.00285414 -0.00204883 0.00670239)
(0.00220146 0.000256111 0.00690974)
(0.00170509 0.00212597 0.00690062)
(0.00114346 0.00348989 0.00677521)
(0.00071077 0.00432157 0.0067195)
(-0.000157519 0.00470549 0.00695121)
(-0.00125345 0.00459758 0.00668686)
(-0.002039 0.00431114 0.006407)
(-0.00246019 0.00366434 0.00655104)
(-0.00275084 0.00240633 0.00666478)
(-0.00295492 0.000532532 0.00653627)
(-0.00340762 -0.00195432 0.00620797)
(-0.00409237 -0.00485703 0.00540158)
(-0.00426036 -0.00814768 0.00342642)
(-0.00481945 -0.0116656 -0.000265964)
(8.35432e-05 -0.0169902 -0.00552774)
(-0.00287075 -0.0146727 -0.0095227)
(-0.000356008 -0.0103962 -0.00528509)
(-0.00260117 -0.00775 -0.00260122)
(-0.00278463 -0.00630485 -0.00144316)
(-0.00305556 -0.00543291 -0.00139971)
(-0.00280671 -0.00491588 -0.00185678)
(-0.00230629 -0.00465804 -0.0023032)
(-0.00160409 -0.00459289 -0.0022806)
(-0.000788247 -0.00458594 -0.00132381)
(-0.000583581 -0.003846 7.57008e-05)
(-0.000436522 -0.0039855 -0.000560091)
(-0.00014818 -0.00447739 -0.00247258)
(0.000859428 -0.00441259 -0.00333352)
(0.00184451 -0.0044732 -0.00322798)
(0.00258886 -0.00476209 -0.00270907)
(0.0030142 -0.00532748 -0.00214792)
(0.00281731 -0.00630905 -0.0019838)
(0.00266611 -0.0078813 -0.00298987)
(0.000510676 -0.0106589 -0.00544249)
(0.0030485 -0.0150863 -0.0093782)
(-0.00830314 -0.00885352 -0.0146311)
(-0.012315 -0.00517505 -0.0149823)
(-0.0170209 -0.00312844 -0.0170209)
(-0.0189829 -0.00200561 -0.0198398)
(-0.0197136 -0.00100921 -0.0230584)
(-0.0191202 1.02817e-05 -0.0263373)
(-0.0172418 0.00120503 -0.0294109)
(-0.0139331 0.00262399 -0.0319054)
(-0.00908707 0.00427611 -0.0333127)
(-0.00389901 0.00612978 -0.0323539)
(0.0051163 0.00572397 -0.0330576)
(0.00995539 0.00390507 -0.0337841)
(0.0146386 0.00237521 -0.0323342)
(0.0178731 0.00108748 -0.0298137)
(0.0197655 -5.95802e-06 -0.0267658)
(0.0203949 -0.000971988 -0.0234744)
(0.0196861 -0.00198561 -0.0201973)
(0.0176663 -0.00316497 -0.0172433)
(0.0128135 -0.00528604 -0.0149931)
(0.0085789 -0.0090776 -0.0144056)
(-0.000210312 0.000103443 -0.00257483)
(-0.000801307 0.000205635 -0.00206147)
(-0.0011286 0.000166933 -0.00162126)
(-0.00125434 -5.17842e-05 -0.00125434)
(-0.000989113 -0.000408707 -0.000877377)
(-0.000361374 -0.000693572 -0.000476851)
(0.000372734 -0.000680888 -4.63665e-05)
(0.000705344 -0.000335839 0.000568139)
(0.000297932 0.000288932 0.00127849)
(-0.00109414 0.00075789 0.00192433)
(-0.00296093 0.000807841 0.00186743)
(-0.00437865 0.00052025 0.00131828)
(-0.00516262 0.000227557 0.000537117)
(-0.0053662 -9.19689e-06 -0.000269572)
(-0.0051337 -0.000235399 -0.000973897)
(-0.00467506 -0.000480563 -0.00147494)
(-0.00400819 -0.000897529 -0.00171151)
(-0.0030684 -0.00126177 -0.00175821)
(-0.00187082 -0.00144759 -0.00175514)
(-0.000766974 -0.00155973 -0.0018387)
(-0.000781458 0.00121777 -0.00480857)
(-0.00144811 0.000853743 -0.00317553)
(-0.00181023 0.000391555 -0.00224734)
(-0.00171501 -0.000231664 -0.00171499)
(-0.00129807 -0.000906892 -0.00142961)
(-0.000781491 -0.00131865 -0.00118378)
(-0.000247635 -0.00131224 -0.000864079)
(0.000160762 -0.000613988 -0.000617376)
(0.000143586 0.000442328 -0.000381086)
(-0.000369003 0.00114747 -9.22331e-05)
(-0.00119149 0.00123971 0.000133467)
(-0.00193629 0.000923072 0.00020673)
(-0.00239208 0.000468655 9.39562e-05)
(-0.00249046 -0.000113314 -7.26628e-05)
(-0.00216647 -0.000587945 -0.000198998)
(-0.00157385 -0.000624633 -0.000444832)
(-0.00105822 -0.000663746 -0.000843502)
(-0.000679403 -0.00092567 -0.0013212)
(-0.000454517 -0.00121363 -0.002032)
(-7.23262e-05 -0.00131416 -0.00325272)
(-5.93522e-05 0.00230722 -0.00372253)
(-4.6105e-05 0.00136081 -0.00162668)
(-0.000491327 8.93272e-05 -0.00106286)
(-0.00108789 -0.00135494 -0.00108787)
(-0.00157882 -0.00244665 -0.00113775)
(-0.00154626 -0.00282412 -0.00080452)
(-0.0011816 -0.00266392 -0.000439168)
(-0.000721275 -0.0017184 -0.000547943)
(-0.000315956 -0.000578818 -0.000801781)
(0.000106704 0.000413022 -0.00114042)
(0.00033121 0.000655006 -0.00126354)
(0.000451322 0.000301933 -0.00108013)
(0.000723639 -0.000154212 -0.000868784)
(0.000954137 -0.000678158 -0.000687216)
(0.0012795 -0.00171431 -0.000521122)
(0.00176728 -0.00238575 -0.000753193)
(0.0021424 -0.00247386 -0.00149657)
(0.00189838 -0.00251069 -0.00229693)
(0.00124802 -0.00241349 -0.00334993)
(0.000780757 -0.00253259 -0.00607578)
(0.00221812 0.00568851 0.00697914)
(0.00402154 0.00447155 0.00725126)
(0.00522081 0.00324355 0.00642383)
(0.00519181 0.00183116 0.00519184)
(0.00413761 0.000217087 0.00391185)
(0.00240017 -0.00180442 0.00267034)
(0.00106033 -0.003283 0.00166258)
(0.000275727 -0.00323658 0.000783307)
(5.44833e-05 -0.00267041 -3.50161e-05)
(0.000483703 -0.0018802 -0.00106497)
(0.00112851 -0.00149582 -0.00151164)
(0.00170678 -0.0017017 -0.00119601)
(0.00205566 -0.00223494 -0.000554041)
(0.00205781 -0.00238423 -0.00012714)
(0.00129835 -0.00275064 0.000612992)
(-0.000348264 -0.00205145 0.00213403)
(-0.00197742 0.000223175 0.00365372)
(-0.00284091 0.00204179 0.00492529)
(-0.00249116 0.00317194 0.00559084)
(-0.00143518 0.00439246 0.00500907)
(0.00354527 8.42615e-05 0.0115911)
(0.00705096 0.00101184 0.0126526)
(0.00988738 0.00150863 0.0123759)
(0.0112799 0.00153919 0.0112799)
(0.0113044 0.00105462 0.00991314)
(0.0102989 0.000190718 0.00848837)
(0.00815076 -0.00101604 0.00670213)
(0.00533415 -0.00231541 0.00481524)
(0.00284851 -0.00338107 0.00288912)
(0.00147687 -0.00379365 0.0011477)
(0.000868601 -0.00371707 0.000522983)
(0.000140574 -0.00343798 0.0015087)
(-0.0018132 -0.00259438 0.00351026)
(-0.00458138 -0.000407029 0.00563616)
(-0.00747829 0.0010879 0.00776315)
(-0.00947862 0.00158027 0.00992503)
(-0.00978096 0.00167676 0.0115496)
(-0.00870164 0.00143866 0.0126591)
(-0.00631458 0.000829475 0.0127717)
(-0.00329079 -2.12227e-05 0.0114586)
(0.00349472 -0.00650713 0.00440682)
(0.00793978 -0.0038557 0.00855727)
(0.0105598 -0.00233073 0.0110933)
(0.0120593 -0.000882401 0.0120594)
(0.01243 0.000233237 0.0119384)
(0.0116896 0.00076631 0.0112203)
(0.0100058 0.000933303 0.0101203)
(0.00760067 0.000746208 0.00864098)
(0.00475179 -0.000140898 0.00671505)
(0.001992 -0.00159755 0.00485392)
(-0.000854989 -0.00151297 0.00458065)
(-0.0036528 0.000373795 0.00650056)
(-0.00686268 0.0017634 0.00887236)
(-0.00919048 0.00231017 0.0104783)
(-0.0107545 0.00213336 0.0116845)
(-0.011564 0.00114433 0.0125974)
(-0.0114317 -0.000279723 0.0127395)
(-0.0102554 -0.00180258 0.0116283)
(-0.00792945 -0.00347612 0.00888867)
(-0.00371597 -0.00656707 0.00454613)
(0.00215092 -0.011478 -0.00224559)
(0.00766178 -0.00664502 0.00361199)
(0.00941733 -0.00422187 0.00781169)
(0.0104603 -0.00231798 0.0104603)
(0.0103933 -0.000952034 0.011811)
(0.00942677 -4.2353e-05 0.0119961)
(0.00794229 0.000293092 0.0115764)
(0.00601438 6.82976e-05 0.0108511)
(0.00368774 -0.000613637 0.00994422)
(0.00091751 -0.001325 0.00891469)
(-0.0025432 -0.000654314 0.0091446)
(-0.00514126 0.000485909 0.0103035)
(-0.00721131 0.00118243 0.0111952)
(-0.00873054 0.00142355 0.0118588)
(-0.00982106 0.00106634 0.0121452)
(-0.0105717 -5.56201e-05 0.0118131)
(-0.0107214 -0.00165252 0.0104152)
(-0.00979671 -0.00366785 0.00770937)
(-0.00795291 -0.00638073 0.00345413)
(-0.00226731 -0.0119571 -0.00234854)
(-0.000168762 -0.0150677 -0.00692917)
(0.00559814 -0.00850507 -0.000910807)
(0.00590764 -0.00477925 0.00365486)
(0.00649218 -0.00147017 0.00649211)
(0.00630358 0.0011573 0.00802763)
(0.00576498 0.00286694 0.00865092)
(0.0048483 0.00383507 0.00862476)
(0.00364426 0.00444038 0.00834531)
(0.00234845 0.00482104 0.0081115)
(0.0001838 0.00518139 0.00811933)
(-0.00254677 0.00527625 0.00797204)
(-0.00430217 0.00518897 0.00796507)
(-0.00542558 0.00495224 0.00817725)
(-0.00628677 0.00445499 0.00837678)
(-0.00693722 0.00355586 0.00827941)
(-0.00732207 0.00190231 0.00761404)
(-0.00723375 -0.00083399 0.00597706)
(-0.00639813 -0.0043946 0.00321016)
(-0.00571728 -0.00857466 -0.00114623)
(0.000289891 -0.0157515 -0.00687799)
(-0.00347686 -0.0146092 -0.0112499)
(-0.000157674 -0.00950515 -0.00662082)
(-0.00144311 -0.00630484 -0.00278469)
(-0.000447562 -0.00439384 -0.000447626)
(-0.0002814 -0.00320611 0.000158017)
(0.000320901 -0.00261503 0.000579168)
(0.000608565 -0.00247219 0.000528189)
(0.000353203 -0.00244648 -1.11812e-05)
(6.58948e-05 -0.00225811 4.77444e-06)
(-0.000757668 -0.000870006 0.000755235)
(-0.00135242 -0.000879156 3.29778e-05)
(-0.00176884 -0.00199012 -0.000956739)
(-0.00178662 -0.00203657 -0.000995712)
(-0.00162432 -0.00202171 -0.000537385)
(-0.00108388 -0.00220865 -0.000377444)
(1.91012e-05 -0.00286945 -0.000877359)
(0.000342536 -0.00415272 -0.00109467)
(0.0015787 -0.00629024 -0.00320475)
(0.000417623 -0.00978426 -0.00677342)
(0.00373081 -0.0151666 -0.0110625)
(-0.00983527 -0.00875157 -0.0164066)
(-0.014573 -0.00440602 -0.0168538)
(-0.0198398 -0.00200561 -0.0189829)
(-0.022042 -0.000640463 -0.022042)
(-0.0228612 0.000659895 -0.0255943)
(-0.0222691 0.00202832 -0.0292838)
(-0.0203503 0.00361085 -0.0329077)
(-0.0167884 0.00538585 -0.0359494)
(-0.0113583 0.00743454 -0.0378524)
(-0.00513707 0.00977462 -0.0372042)
(0.00624035 0.00930295 -0.037751)
(0.012108 0.00705562 -0.0382135)
(0.0173705 0.0051339 -0.0362089)