/*--------------------------------*- C++ -*----------------------------------*\
| =========                 |                                                 |
| \\      /  F ield         | OpenFOAM: The Open Source CFD Toolbox           |
|  \\    /   O peration     | Version:  1.7.1                                 |
|   \\  /    A nd           | Web:      www.OpenFOAM.com                      |
|    \\/     M anipulation  |                                                 |
\*---------------------------------------------------------------------------*/
FoamFile
{
    version     2.0;
    format      ascii;
    class       volScalarField;
    location    "0.1";
    object      p;
}
// * * * * * * * * * * * * * * * * * * * * * * * * * * * * * * * * * * * * * //

dimensions      [0 2 -2 0 0 0 0];

internalField   nonuniform List<scalar> 
400
(
3.31961e-08
-0.0057351
-0.0127454
-0.0180784
-0.0200131
-0.0177867
-0.0113432
-0.00112374
0.0120862
0.0272601
0.0432077
0.0586472
0.072291
0.0829523
0.0896823
0.09194
0.0897933
0.0841379
0.0769013
0.0711741
0.00568167
-0.000222525
-0.00570817
-0.00935854
-0.0103504
-0.00815205
-0.00269287
0.00571398
0.0164776
0.0288021
0.0417483
0.0542978
0.0654298
0.0742144
0.0799231
0.0821565
0.0809905
0.0770623
0.0713811
0.0655109
0.0131066
0.00493046
-0.000997496
-0.00434666
-0.00513712
-0.00309238
0.00178422
0.00919566
0.0186357
0.0294337
0.0407936
0.0518439
0.061701
0.0695484
0.0747263
0.0768352
0.0758638
0.0721924
0.0660121
0.0578548
0.0197913
0.00850851
0.00115119
-0.00266346
-0.00365578
-0.0017769
0.00286188
0.00991861
0.0189012
0.0291897
0.0400529
0.0506809
0.0602337
0.0679067
0.0730066
0.0750441
0.073873
0.0696486
0.0619073
0.0505519
0.0240768
0.00953228
0.000470263
-0.00402472
-0.00527562
-0.0034319
0.00128334
0.00846142
0.017593
0.0280719
0.0391907
0.0501554
0.0601181
0.0682298
0.0737055
0.0759153
0.0745498
0.0695567
0.0599136
0.0450937
0.0247377
0.00690014
-0.0039301
-0.0091042
-0.0104927
-0.00842594
-0.00324001
0.00457701
0.0144791
0.0258503
0.0379799
0.0500579
0.0611912
0.0704425
0.0768858
0.0797018
0.078382
0.0726595
0.060988
0.0425164
0.0207087
-0.000470872
-0.0130307
-0.0187293
-0.0199838
-0.0173094
-0.0111635
-0.00212397
0.00921523
0.0222167
0.0361528
0.0501804
0.063337
0.0745627
0.0827439
0.0868158
0.086015
0.0798147
0.0661027
0.0437248
0.0108812
-0.0137368
-0.027901
-0.0338136
-0.0345007
-0.0306949
-0.0229946
-0.0120782
0.00140931
0.0168114
0.0333876
0.0502628
0.0663984
0.08059
0.0914942
0.0977335
0.0982059
0.0920284
0.0763849
0.0497533
-0.00604976
-0.0342556
-0.049795
-0.0554213
-0.0549081
-0.0492743
-0.0392945
-0.0257599
-0.00935966
0.00924905
0.0293375
0.0500233
0.0702077
0.08854
0.103412
0.113058
0.115918
0.110593
0.0933039
0.061993
-0.0317251
-0.0637115
-0.080223
-0.0847794
-0.0821483
-0.0737527
-0.0605958
-0.0435931
-0.0234586
-0.000810915
0.023684
0.0491907
0.0745993
0.0984399
0.118827
0.133529
0.140378
0.137214
0.118869
0.0824273
-0.0683119
-0.104281
-0.121031
-0.123264
-0.117159
-0.104724
-0.0872569
-0.0658027
-0.04106
-0.0135411
0.0162344
0.0475713
0.0794412
0.110332
0.13811
0.160023
0.173127
0.174154
0.15589
0.113951
-0.118845
-0.158897
-0.174502
-0.172354
-0.160731
-0.142475
-0.119248
-0.0922017
-0.0619422
-0.0287696
0.00706812
0.0451563
0.0846993
0.12429
0.161657
0.19354
0.216063
0.22442
0.208346
0.160883
-0.187922
-0.231687
-0.243465
-0.233509
-0.21326
-0.186692
-0.155855
-0.121914
-0.0852433
-0.0457674
-0.00328851
0.0422522
0.0905119
0.140433
0.189844
0.235135
0.271443
0.291959
0.281955
0.229887
-0.283199
-0.328717
-0.331355
-0.307862
-0.274312
-0.236024
-0.195292
-0.153061
-0.109212
-0.0630571
-0.0137221
0.039568
0.0972114
0.15886
0.22287
0.285694
0.341716
0.381807
0.385037
0.33181
-0.418569
-0.459125
-0.441937
-0.395459
-0.341833
-0.287429
-0.234244
-0.182468
-0.131054
-0.0783559
-0.0225479
0.0381341
0.105163
0.179368
0.260296
0.345308
0.428864
0.499857
0.529709
0.485246
-0.619905
-0.636314
-0.578392
-0.494006
-0.4111
-0.335501
-0.267551
-0.205642
-0.14709
-0.0888461
-0.0278388
0.0389366
0.114349
0.200931
0.300334
0.412281
0.533193
0.651851
0.732726
0.722158
-0.935496
-0.878258
-0.741631
-0.597945
-0.474438
-0.37268
-0.288803
-0.217574
-0.153635
-0.0920356
-0.0282208
0.0422082
0.12374
0.221116
0.33922
0.48234
0.652085
0.841346
1.01517
1.09722
-1.47622
-1.20656
-0.920577
-0.69157
-0.517532
-0.387738
-0.290157
-0.213295
-0.147933
-0.0868933
-0.0241633
0.0459118
0.129377
0.233446
0.367381
0.542844
0.771352
1.05929
1.40316
1.72987
-2.53964
-1.63064
-1.04467
-0.711307
-0.49615
-0.352462
-0.254795
-0.183694
-0.126106
-0.0733665
-0.0189088
0.0432284
0.119677
0.219214
0.355165
0.548228
0.826519
1.2366
1.91159
2.92399
-4.36675
-2.04482
-0.973896
-0.563693
-0.358444
-0.240731
-0.170596
-0.124079
-0.0875585
-0.0533641
-0.016312
0.0281485
0.0851756
0.16231
0.272941
0.44253
0.71852
1.22587
2.41106
4.84844
)
;

boundaryField
{
    movingWall
    {
        type            zeroGradient;
    }
    fixedWalls
    {
        type            zeroGradient;
    }
    frontAndBack
    {
        type            empty;
    }
}


// ************************************************************************* //
