/*--------------------------------*- C++ -*----------------------------------*\
| =========                 |                                                 |
| \\      /  F ield         | OpenFOAM: The Open Source CFD Toolbox           |
|  \\    /   O peration     | Version:  1.7.1                                 |
|   \\  /    A nd           | Web:      www.OpenFOAM.com                      |
|    \\/     M anipulation  |                                                 |
\*---------------------------------------------------------------------------*/
FoamFile
{
    version     2.0;
    format      ascii;
    class       surfaceScalarField;
    location    "0.1";
    object      phi;
}
// * * * * * * * * * * * * * * * * * * * * * * * * * * * * * * * * * * * * * //

dimensions      [0 3 -1 0 0 0 0];

internalField   nonuniform List<scalar> 
760
(
1.399e-08
-1.39903e-08
-2.19448e-08
3.59351e-08
-1.126e-07
9.0655e-08
-2.4175e-07
1.29151e-07
-3.8992e-07
1.4817e-07
-5.38703e-07
1.48783e-07
-6.72276e-07
1.33573e-07
-7.77968e-07
1.05692e-07
-8.46389e-07
6.84205e-08
-8.71474e-07
2.50852e-08
-8.50622e-07
-2.08514e-08
-7.8494e-07
-6.56819e-08
-6.79541e-07
-1.054e-07
-5.43782e-07
-1.35759e-07
-3.91283e-07
-1.52498e-07
-2.39485e-07
-1.51798e-07
-1.08414e-07
-1.31072e-07
-1.83234e-08
-9.00906e-08
1.54082e-08
-3.3731e-08
1.54086e-08
-3.36873e-08
1.96967e-08
-1.77536e-07
1.79783e-07
-4.27065e-07
3.40184e-07
-7.52087e-07
4.54172e-07
-1.11373e-06
5.09815e-07
-1.47261e-06
5.07657e-07
-1.79317e-06
4.54135e-07
-2.04603e-06
3.58551e-07
-2.20906e-06
2.31449e-07
-2.26802e-06
8.40454e-08
-2.21707e-06
-7.17985e-08
-2.0593e-06
-2.23452e-07
-1.80718e-06
-3.57525e-07
-1.48272e-06
-4.60219e-07
-1.11699e-06
-5.18225e-07
-7.48442e-07
-5.20347e-07
-4.19434e-07
-4.6008e-07
-1.70393e-07
-3.39132e-07
-3.04407e-08
-1.73684e-07
-1.50321e-08
-9.07676e-08
1.10465e-07
-3.51352e-07
4.40369e-07
-7.52408e-07
7.4124e-07
-1.24818e-06
9.49945e-07
-1.78543e-06
1.04707e-06
-2.31093e-06
1.03315e-06
-2.77644e-06
9.19649e-07
-3.14182e-06
7.23928e-07
-3.37669e-06
4.66318e-07
-3.46149e-06
1.68853e-07
-3.38828e-06
-1.45017e-07
-3.16134e-06
-4.50388e-07
-2.7978e-06
-7.2106e-07
-2.3277e-06
-9.30326e-07
-1.79315e-06
-1.05277e-06
-1.2461e-06
-1.0674e-06
-7.43846e-07
-9.62334e-07
-3.42191e-07
-7.40786e-07
-8.61659e-08
-4.29709e-07
-1.01198e-07
-1.42987e-07
2.53451e-07
-5.17518e-07
8.149e-07
-1.06529e-06
1.28901e-06
-1.72101e-06
1.60566e-06
-2.41692e-06
1.74297e-06
-3.08833e-06
1.70456e-06
-3.67787e-06
1.50919e-06
-4.13824e-06
1.18429e-06
-4.43378e-06
7.61862e-07
-4.54152e-06
2.7659e-07
-4.4519e-06
-2.34641e-07
-4.16955e-06
-7.32731e-07
-3.71402e-06
-1.17659e-06
-3.12005e-06
-1.5243e-06
-2.43703e-06
-1.73579e-06
-1.72693e-06
-1.7775e-06
-1.06001e-06
-1.62926e-06
-5.08302e-07
-1.29249e-06
-1.37478e-07
-8.00533e-07
-2.38675e-07
-1.90903e-07
4.44355e-07
-6.75618e-07
1.29962e-06
-1.36672e-06
1.98012e-06
-2.17708e-06
2.41602e-06
-3.02338e-06
2.58928e-06
-3.8302e-06
2.51138e-06
-4.53287e-06
2.21186e-06
-5.0792e-06
1.73062e-06
-5.43029e-06
1.11296e-06
-5.561e-06
4.07296e-07
-5.46038e-06
-3.35257e-07
-5.13249e-06
-1.06062e-06
-4.59734e-06
-1.71174e-06
-3.89187e-06
-2.22977e-06
-3.07025e-06
-2.55741e-06
-2.20278e-06
-2.64497e-06
-1.37268e-06
-2.45935e-06
-6.70322e-07
-1.99485e-06
-1.855e-07
-1.28535e-06
-4.24175e-07
-2.3708e-07
6.81434e-07
-8.30563e-07
1.8931e-06
-1.66378e-06
2.81334e-06
-2.62619e-06
3.37843e-06
-3.61806e-06
3.58115e-06
-4.55359e-06
3.4469e-06
-5.36222e-06
3.02049e-06
-5.98878e-06
2.35718e-06
-6.39282e-06
1.517e-06
-6.5481e-06
5.62575e-07
-6.4424e-06
-4.40962e-07
-6.07818e-06
-1.42484e-06
-5.47407e-06
-2.31586e-06
-4.66674e-06
-3.03709e-06
-3.71284e-06
-3.51132e-06
-2.68967e-06
-3.66814e-06
-1.69373e-06
-3.45529e-06
-8.35972e-07
-2.85261e-06
-2.3374e-07
-1.88759e-06
-6.57915e-07
-2.84067e-07
9.65501e-07
-9.87983e-07
2.59701e-06
-1.96403e-06
3.78938e-06
-3.07649e-06
4.49089e-06
-4.20863e-06
4.7133e-06
-5.2651e-06
4.50337e-06
-6.17132e-06
3.92672e-06
-6.87135e-06
3.05721e-06
-7.32526e-06
1.97091e-06
-7.50696e-06
7.44278e-07
-7.40317e-06
-5.44758e-07
-7.01376e-06
-1.81425e-06
-6.35378e-06
-2.97584e-06
-5.45676e-06
-3.93411e-06
-4.37878e-06
-4.58929e-06
-3.20202e-06
-4.84491e-06
-2.03591e-06
-4.6214e-06
-1.01416e-06
-3.87435e-06
-2.85914e-07
-2.61583e-06
-9.4383e-07
-3.34151e-07
1.29965e-06
-1.15298e-06
3.41584e-06
-2.27336e-06
4.90977e-06
-3.53189e-06
5.74941e-06
-4.79466e-06
5.97607e-06
-5.95859e-06
5.6673e-06
-6.94806e-06
4.91619e-06
-7.70966e-06
3.81881e-06
-8.20682e-06
2.46807e-06
-8.41554e-06
9.52992e-07
-8.32198e-06
-6.38317e-07
-7.92244e-06
-2.21378e-06
-7.22584e-06
-3.67244e-06
-6.25868e-06
-4.90127e-06
-5.07205e-06
-5.77592e-06
-3.74901e-06
-6.16795e-06
-2.4101e-06
-5.96031e-06
-1.21343e-06
-5.07103e-06
-3.45627e-07
-3.48363e-06
-1.28946e-06
-3.89546e-07
1.6892e-06
-1.33008e-06
4.35637e-06
-2.59538e-06
6.17508e-06
-3.9907e-06
7.14473e-06
-5.36554e-06
7.35091e-06
-6.61257e-06
6.91433e-06
-7.65994e-06
5.96355e-06
-8.46167e-06
4.62054e-06
-8.98867e-06
2.99508e-06
-9.22183e-06
1.18615e-06
-9.14792e-06
-7.12228e-07
-8.75882e-06
-2.60289e-06
-8.05434e-06
-4.37692e-06
-7.04897e-06
-5.90664e-06
-5.78223e-06
-7.04266e-06
-4.33143e-06
-7.61875e-06
-2.82359e-06
-7.46815e-06
-1.44147e-06
-6.45315e-06
-4.16481e-07
-4.50862e-06
-1.70594e-06
-4.53005e-07
2.1422e-06
-1.52409e-06
5.42745e-06
-2.93153e-06
7.58252e-06
-4.44452e-06
8.65771e-06
-5.89812e-06
8.80452e-06
-7.18686e-06
8.20306e-06
-8.25003e-06
7.02672e-06
-9.05607e-06
5.42658e-06
-9.58902e-06
3.52803e-06
-9.83854e-06
1.43568e-06
-9.79393e-06
-7.56837e-07
-9.44226e-06
-2.95456e-06
-8.77118e-06
-5.048e-06
-7.77706e-06
-6.90076e-06
-6.47894e-06
-8.34077e-06
-4.93791e-06
-9.15979e-06
-3.27847e-06
-9.12758e-06
-1.70524e-06
-8.02638e-06
-5.02568e-07
-5.71129e-06
-2.20851e-06
-5.28944e-07
2.67115e-06
-1.74156e-06
6.64008e-06
-3.28142e-06
9.12238e-06
-4.8765e-06
1.02528e-05
-6.35299e-06
1.0281e-05
-7.61748e-06
9.46755e-06
-8.63123e-06
8.04048e-06
-9.38636e-06
6.18171e-06
-9.88707e-06
4.02874e-06
-1.01367e-05
1.68529e-06
-1.01298e-05
-7.63777e-07
-9.84894e-06
-3.23537e-06
-9.2672e-06
-5.62974e-06
-8.35629e-06
-7.81167e-06
-7.10372e-06
-9.59334e-06
-5.53927e-06
-1.07242e-05
-3.76934e-06
-1.08975e-05
-2.01126e-06
-9.78446e-06
-6.09359e-07
-7.11319e-06
-2.81787e-06
-6.25302e-07
3.29645e-06
-1.99268e-06
8.00746e-06
-3.64193e-06
1.07716e-05
-5.25698e-06
1.18678e-05
-6.66738e-06
1.16914e-05
-7.80839e-06
1.06086e-05
-8.67811e-06
8.9102e-06
-9.30346e-06
6.80706e-06
-9.71651e-06
4.44179e-06
-9.9393e-06
1.90809e-06
-9.97494e-06
-7.28135e-07
-9.80335e-06
-3.40696e-06
-9.38178e-06
-6.05131e-06
-8.65207e-06
-8.54139e-06
-7.55828e-06
-1.06871e-05
-6.07927e-06
-1.22033e-05
-4.2785e-06
-1.26983e-05
-2.36544e-06
-1.16975e-05
-7.45186e-07
-8.73344e-06
-3.56305e-06
-7.56573e-07
4.05302e-06
-2.2925e-06
9.54338e-06
-4.0026e-06
1.24817e-05
-5.53282e-06
1.33981e-05
-6.74134e-06
1.28999e-05
-7.61752e-06
1.14847e-05
-8.21497e-06
9.50764e-06
-8.60681e-06
7.19891e-06
-8.85921e-06
4.69419e-06
-9.01666e-06
2.06554e-06
-9.09389e-06
-6.50905e-07
-9.07109e-06
-3.42976e-06
-8.89197e-06
-6.23042e-06
-8.46694e-06
-8.96641e-06
-7.68716e-06
-1.14669e-05
-6.45854e-06
-1.34319e-05
-4.76598e-06
-1.43908e-05
-2.77121e-06
-1.36923e-05
-9.23583e-07
-1.05811e-05
-4.48663e-06
-9.48258e-07
5.00128e-06
-2.65852e-06
1.12536e-05
-4.33035e-06
1.41536e-05
-5.60308e-06
1.46708e-05
-6.41097e-06
1.37078e-05
-6.83332e-06
1.19071e-05
-6.99884e-06
9.67316e-06
-7.03432e-06
7.23439e-06
-7.0411e-06
4.70096e-06
-7.08571e-06
2.11015e-06
-7.19573e-06
-5.40877e-07
-7.35595e-06
-3.26954e-06
-7.50338e-06
-6.083e-06
-7.52325e-06
-8.94654e-06
-7.25281e-06
-1.17374e-05
-6.50703e-06
-1.41777e-05
-5.14806e-06
-1.57498e-05
-3.22187e-06
-1.56185e-05
-1.16622e-06
-1.26367e-05
-5.65286e-06
-1.2405e-06
6.24178e-06
-3.0939e-06
1.3107e-05
-4.52845e-06
1.55881e-05
-5.26686e-06
1.54092e-05
-5.39962e-06
1.38406e-05
-5.13771e-06
1.16452e-05
-4.69682e-06
9.23226e-06
-4.25301e-06
6.79058e-06
-3.93309e-06
4.38104e-06
-3.81746e-06
1.99452e-06
-3.9438e-06
-4.14536e-07
-4.30615e-06
-2.90719e-06
-4.84739e-06
-5.54177e-06
-5.44576e-06
-8.34817e-06
-5.90107e-06
-1.1282e-05
-5.93663e-06
-1.41421e-05
-5.25121e-06
-1.64352e-05
-3.67509e-06
-1.71946e-05
-1.50248e-06
-1.48093e-05
-7.15534e-06
-1.67664e-06
7.91843e-06
-3.5231e-06
1.49535e-05
-4.33482e-06
1.63998e-05
-4.12003e-06
1.51944e-05
-3.23666e-06
1.29572e-05
-2.05457e-06
1.04631e-05
-8.61962e-07
8.03965e-06
1.43704e-07
5.78491e-06
8.36727e-07
3.68802e-06
1.14168e-06
1.68956e-06
1.01943e-06
-2.92278e-07
4.63345e-07
-2.35111e-06
-4.92445e-07
-4.58598e-06
-1.75125e-06
-7.08936e-06
-3.11852e-06
-9.91478e-06
-4.26374e-06
-1.29969e-05
-4.71606e-06
-1.59829e-05
-3.97712e-06
-1.79336e-05
-1.94769e-06
-1.68387e-05
-9.10303e-06
-2.23273e-06
1.01512e-05
-3.59783e-06
1.63186e-05
-3.09369e-06
1.58957e-05
-1.37031e-06
1.3471e-05
8.58864e-07
1.07281e-05
3.1049e-06
8.21706e-06
5.0771e-06
6.06745e-06
6.61871e-06
4.24331e-06
7.64968e-06
2.65705e-06
8.1276e-06
1.21164e-06
8.02575e-06
-1.90424e-07
7.32524e-06
-1.6506e-06
6.02058e-06
-3.28132e-06
4.14297e-06
-5.21175e-06
1.8097e-06
-7.58151e-06
-6.93712e-07
-1.04935e-05
-2.81222e-06
-1.38644e-05
-3.67198e-06
-1.70738e-05
-2.41435e-06
-1.80964e-05
-1.15174e-05
-2.57478e-06
1.27259e-05
-2.18797e-06
1.59318e-05
7.07372e-07
1.30004e-05
4.45041e-06
9.72797e-06
8.1042e-06
7.07427e-06
1.12621e-05
5.05917e-06
1.37799e-05
3.54967e-06
1.56308e-05
2.39239e-06
1.68287e-05
1.4591e-06
1.73893e-05
6.5109e-07
1.73113e-05
-1.12419e-07
1.6569e-05
-9.08311e-07
1.51119e-05
-1.82426e-06
1.28766e-05
-2.97647e-06
9.82465e-06
-4.52952e-06
6.03519e-06
-6.70399e-06
1.8955e-06
-9.72472e-06
-1.56797e-06
-1.36103e-05
-2.46073e-06
-1.72036e-05
-1.39781e-05
-7.8495e-07
1.35109e-05
4.07934e-06
1.10675e-05
1.02924e-05
6.78727e-06
1.57829e-05
4.23755e-06
2.01402e-05
2.71693e-06
2.34327e-05
1.76671e-06
2.58282e-05
1.15411e-06
2.7483e-05
7.37611e-07
2.85114e-05
4.30697e-07
2.89819e-05
1.80599e-07
2.89181e-05
-4.86259e-08
2.82973e-05
-2.87466e-07
2.70448e-05
-5.71809e-07
2.50239e-05
-9.55548e-07
2.20273e-05
-1.53288e-06
1.7798e-05
-2.47477e-06
1.21616e-05
-4.08825e-06
5.47251e-06
-6.92128e-06
-1.30557e-07
-1.16005e-05
-1.41087e-05
1.35109e-05
2.45784e-05
3.13656e-05
3.56032e-05
3.83201e-05
4.00868e-05
4.12409e-05
4.19785e-05
4.24092e-05
4.25898e-05
4.25412e-05
4.22537e-05
4.16819e-05
4.07264e-05
3.91935e-05
3.67187e-05
3.26305e-05
2.57092e-05
1.41087e-05
)
;

boundaryField
{
    movingWall
    {
        type            calculated;
        value           uniform 0;
    }
    fixedWalls
    {
        type            calculated;
        value           uniform 0;
    }
    frontAndBack
    {
        type            empty;
    }
}


// ************************************************************************* //
