/*--------------------------------*- C++ -*----------------------------------*\
| =========                 |                                                 |
| \\      /  F ield         | OpenFOAM: The Open Source CFD Toolbox           |
|  \\    /   O peration     | Version:  1.7.1                                 |
|   \\  /    A nd           | Web:      www.OpenFOAM.com                      |
|    \\/     M anipulation  |                                                 |
\*---------------------------------------------------------------------------*/
FoamFile
{
    version     2.0;
    format      ascii;
    class       volVectorField;
    location    "0.1";
    object      U;
}
// * * * * * * * * * * * * * * * * * * * * * * * * * * * * * * * * * * * * * //

dimensions      [0 1 -1 0 0 0 0];

internalField   nonuniform List<vector> 
400
(
(0.00024921 -0.000245875 0)
(0.000137796 0.000110834 0)
(-0.00116078 0.000556988 0)
(-0.00342907 0.00087206 0)
(-0.00627905 0.00102987 0)
(-0.00932055 0.0010453 0)
(-0.0122055 0.000942803 0)
(-0.0146463 0.000748446 0)
(-0.0164212 0.000486966 0)
(-0.0173749 0.000182026 0)
(-0.01742 -0.000142328 0)
(-0.0165405 -0.00046018 0)
(-0.0147978 -0.000742803 0)
(-0.0123364 -0.000958637 0)
(-0.00938778 -0.00107447 0)
(-0.00626695 -0.00105848 0)
(-0.0033572 -0.00088617 0)
(-0.00107548 -0.000550085 0)
(0.000191166 -9.06166e-05 0)
(0.00026352 0.000258062 0)
(-7.66829e-05 -0.000165338 0)
(-0.00158678 0.00162067 0)
(-0.00560302 0.00356113 0)
(-0.011531 0.0049543 0)
(-0.0185857 0.00564942 0)
(-0.025968 0.00566472 0)
(-0.0329166 0.00508523 0)
(-0.0387732 0.00402425 0)
(-0.0430182 0.00260459 0)
(-0.0452854 0.000953607 0)
(-0.0453717 -0.000795202 0)
(-0.0432474 -0.00249928 0)
(-0.0390666 -0.00400588 0)
(-0.033175 -0.0051552 0)
(-0.0261087 -0.00578978 0)
(-0.0185756 -0.0057729 0)
(-0.0114019 -0.00501931 0)
(-0.00543848 -0.00354007 0)
(-0.00147476 -0.0015404 0)
(-4.29721e-05 0.000222178 0)
(-0.000520614 0.00107544 0)
(-0.00365311 0.00564649 0)
(-0.0104216 0.0100609 0)
(-0.0196734 0.0131889 0)
(-0.030271 0.0146984 0)
(-0.041146 0.0145897 0)
(-0.0512724 0.0130318 0)
(-0.0597535 0.0102805 0)
(-0.0658772 0.00663212 0)
(-0.0691405 0.00240602 0)
(-0.0692648 -0.00205862 0)
(-0.066211 -0.00640109 0)
(-0.0601916 -0.0102407 0)
(-0.0516794 -0.0131882 0)
(-0.0414035 -0.0148714 0)
(-0.0303219 -0.0149828 0)
(-0.0195459 -0.0133501 0)
(-0.0102199 -0.0100327 0)
(-0.00350101 -0.00547637 0)
(-0.000471103 -0.000938535 0)
(-0.000914247 0.00342591 0)
(-0.00560545 0.0120294 0)
(-0.0150714 0.0196054 0)
(-0.0274953 0.0247911 0)
(-0.0413482 0.0271449 0)
(-0.0553216 0.026688 0)
(-0.0681902 0.0237077 0)
(-0.078894 0.0186405 0)
(-0.0865968 0.0120007 0)
(-0.0907088 0.00434798 0)
(-0.0909014 -0.00372112 0)
(-0.087122 -0.0115736 0)
(-0.0796099 -0.0185448 0)
(-0.0689077 -0.0239587 0)
(-0.0558636 -0.0271732 0)
(-0.0416085 -0.027659 0)
(-0.0274783 -0.025114 0)
(-0.014893 -0.0196066 0)
(-0.00543305 -0.0117649 0)
(-0.000850752 -0.00318378 0)
(-0.00126114 0.00677333 0)
(-0.00743241 0.0206354 0)
(-0.0195352 0.0320108 0)
(-0.0350511 0.0394775 0)
(-0.0520226 0.042605 0)
(-0.0688988 0.0415174 0)
(-0.0842837 0.036678 0)
(-0.0969992 0.0287467 0)
(-0.106131 0.0184883 0)
(-0.111037 0.00672996 0)
(-0.111354 -0.00565034 0)
(-0.107009 -0.0177225 0)
(-0.0982379 -0.0285087 0)
(-0.0856068 -0.0370087 0)
(-0.0700288 -0.0422622 0)
(-0.0527618 -0.043457 0)
(-0.0353461 -0.0400867 0)
(-0.0194974 -0.0321394 0)
(-0.0072826 -0.0203162 0)
(-0.00118957 -0.006415 0)
(-0.00158837 0.0110541 0)
(-0.00920895 0.0314169 0)
(-0.0239292 0.0472553 0)
(-0.0425052 0.0572149 0)
(-0.0625217 0.0610085 0)
(-0.0821798 0.0589721 0)
(-0.0999332 0.0518248 0)
(-0.114522 0.0405025 0)
(-0.124991 0.0260515 0)
(-0.130678 0.00958113 0)
(-0.131196 -0.00774321 0)
(-0.126444 -0.0246894 0)
(-0.116625 -0.0399537 0)
(-0.10228 -0.0521833 0)
(-0.0843383 -0.0600466 0)
(-0.0641435 -0.0623677 0)
(-0.0434266 -0.0583276 0)
(-0.0242259 -0.0477082 0)
(-0.00915984 -0.0311587 0)
(-0.00152228 -0.0105972 0)
(-0.00192197 0.0162587 0)
(-0.0110193 0.0443793 0)
(-0.0283902 0.0653451 0)
(-0.0500199 0.0779793 0)
(-0.0730074 0.0822847 0)
(-0.0953093 0.0789423 0)
(-0.115259 0.0690267 0)
(-0.131557 0.0538118 0)
(-0.143257 0.0346532 0)
(-0.149708 0.0129443 0)
(-0.150518 -0.00987516 0)
(-0.145549 -0.0322878 0)
(-0.134936 -0.0526707 0)
(-0.119146 -0.0693005 0)
(-0.0990578 -0.0804194 0)
(-0.0760458 -0.0843877 0)
(-0.0520019 -0.0799314 0)
(-0.0293024 -0.0664589 0)
(-0.0111919 -0.0444152 0)
(-0.00188493 -0.0157711 0)
(-0.00228528 0.0224266 0)
(-0.0129421 0.0595861 0)
(-0.0330395 0.0863086 0)
(-0.0577061 0.101723 0)
(-0.0835238 0.106301 0)
(-0.108225 0.101236 0)
(-0.130076 0.0880771 0)
(-0.147806 0.0685061 0)
(-0.160539 0.0442096 0)
(-0.167687 0.0168509 0)
(-0.168879 -0.0118935 0)
(-0.163935 -0.0402644 0)
(-0.152888 -0.0663523 0)
(-0.136062 -0.0880651 0)
(-0.114199 -0.103169 0)
(-0.0886137 -0.109446 0)
(-0.0612915 -0.104985 0)
(-0.0349367 -0.088596 0)
(-0.0135052 -0.0603099 0)
(-0.00231291 -0.0220516 0)
(-0.00270215 0.0296416 0)
(-0.0150543 0.0771528 0)
(-0.0379769 0.110177 0)
(-0.0656027 0.128331 0)
(-0.0939615 0.1328 0)
(-0.120612 0.1255 0)
(-0.143842 0.108604 0)
(-0.162513 0.0842729 0)
(-0.175913 0.0545363 0)
(-0.183589 0.0212901 0)
(-0.18523 -0.0136193 0)
(-0.180619 -0.04827 0)
(-0.16965 -0.080535 0)
(-0.152423 -0.107987 0)
(-0.129425 -0.127888 0)
(-0.101767 -0.137318 0)
(-0.0714028 -0.133504 0)
(-0.0413047 -0.114352 0)
(-0.0162254 -0.0791609 0)
(-0.00284409 -0.0296258 0)
(-0.00320485 0.0380347 0)
(-0.0174491 0.0972382 0)
(-0.0432945 0.136942 0)
(-0.073669 0.157545 0)
(-0.104023 0.161295 0)
(-0.13184 0.15111 0)
(-0.155577 0.129961 0)
(-0.174379 0.100563 0)
(-0.187825 0.0652777 0)
(-0.195694 0.0261668 0)
(-0.197796 -0.0148577 0)
(-0.193892 -0.0558333 0)
(-0.183706 -0.0945335 0)
(-0.167023 -0.128281 0)
(-0.14392 -0.153841 0)
(-0.115103 -0.167487 0)
(-0.0822783 -0.165318 0)
(-0.0485379 -0.143916 0)
(-0.0194895 -0.101359 0)
(-0.00352662 -0.0387564 0)
(-0.00384854 0.0478052 0)
(-0.0202691 0.120043 0)
(-0.0490997 0.166502 0)
(-0.0817709 0.188856 0)
(-0.113164 0.190935 0)
(-0.140875 0.17703 0)
(-0.163759 0.151106 0)
(-0.181447 0.116489 0)
(-0.193976 0.0758297 0)
(-0.201475 0.0312496 0)
(-0.203949 -0.0154207 0)
(-0.201176 -0.0623484 0)
(-0.192687 -0.107384 0)
(-0.177868 -0.147754 0)
(-0.156212 -0.179814 0)
(-0.127753 -0.198967 0)
(-0.0936138 -0.199904 0)
(-0.0567089 -0.177327 0)
(-0.0234677 -0.127341 0)
(-0.00443281 -0.0497997 0)
(-0.00473713 0.0592706 0)
(-0.0237565 0.145818 0)
(-0.0555326 0.19857 0)
(-0.0896277 0.221347 0)
(-0.120474 0.22033 0)
(-0.146117 0.201652 0)
(-0.166146 0.170468 0)
(-0.18094 0.130725 0)
(-0.19118 0.0852663 0)
(-0.197465 0.0361166 0)
(-0.200081 -0.0151633 0)
(-0.198867 -0.0670854 0)
(-0.193179 -0.117814 0)
(-0.18195 -0.16472 0)
(-0.163929 -0.203943 0)
(-0.13816 -0.230069 0)
(-0.10471 -0.236138 0)
(-0.0657882 -0.214298 0)
(-0.0283945 -0.157544 0)
(-0.00568391 -0.0632481 0)
(-0.0060693 0.0729701 0)
(-0.0283202 0.17486 0)
(-0.0627395 0.23251 0)
(-0.0966497 0.253437 0)
(-0.124415 0.2473 0)
(-0.145111 0.222606 0)
(-0.159517 0.185828 0)
(-0.169058 0.14144 0)
(-0.175219 0.092296 0)
(-0.179162 0.0401145 0)
(-0.181508 -0.0140317 0)
(-0.182226 -0.0692372 0)
(-0.180552 -0.124259 0)
(-0.174991 -0.176942 0)
(-0.163461 -0.223555 0)
(-0.143722 -0.258117 0)
(-0.114194 -0.271946 0)
(-0.0755255 -0.253918 0)
(-0.034602 -0.192314 0)
(-0.00749277 -0.0798159 0)
(-0.00821345 0.0898452 0)
(-0.034598 0.207447 0)
(-0.0706971 0.266995 0)
(-0.101513 0.282488 0)
(-0.122278 0.268569 0)
(-0.134018 0.236594 0)
(-0.139256 0.19427 0)
(-0.140705 0.146318 0)
(-0.140711 0.0952968 0)
(-0.140987 0.0423643 0)
(-0.14249 -0.0121098 0)
(-0.145364 -0.0680174 0)
(-0.148852 -0.124981 0)
(-0.15118 -0.181702 0)
(-0.149528 -0.235095 0)
(-0.140234 -0.279164 0)
(-0.119477 -0.303811 0)
(-0.0851386 -0.294143 0)
(-0.0425129 -0.231686 0)
(-0.010227 -0.100579 0)
(-0.0117893 0.111499 0)
(-0.0433804 0.243536 0)
(-0.0786 0.299346 0)
(-0.101156 0.3042 0)
(-0.109121 0.279449 0)
(-0.10674 0.239352 0)
(-0.0987571 0.192334 0)
(-0.089181 0.142777 0)
(-0.0810422 0.0925117 0)
(-0.0763955 0.0418655 0)
(-0.0764133 -0.00964567 0)
(-0.081431 -0.0628257 0)
(-0.090867 -0.118338 0)
(-0.103 -0.176096 0)
(-0.114665 -0.234288 0)
(-0.121031 -0.287837 0)
(-0.11574 -0.326201 0)
(-0.0925238 -0.330956 0)
(-0.0524098 -0.27483 0)
(-0.0144453 -0.127132 0)
(-0.0175679 0.140585 0)
(-0.0548731 0.281868 0)
(-0.0830669 0.324235 0)
(-0.0885817 0.31182 0)
(-0.0758555 0.273695 0)
(-0.0535895 0.225982 0)
(-0.0286938 0.176556 0)
(-0.00595221 0.128533 0)
(0.0115108 0.0824996 0)
(0.0217666 0.0377595 0)
(0.023713 -0.00702161 0)
(0.0168848 -0.0534764 0)
(0.00149079 -0.103268 0)
(-0.0212916 -0.157679 0)
(-0.0487411 -0.216759 0)
(-0.0757758 -0.27758 0)
(-0.094073 -0.331045 0)
(-0.0923517 -0.357051 0)
(-0.0633879 -0.31886 0)
(-0.0206513 -0.161812 0)
(-0.0254615 0.181687 0)
(-0.0658549 0.317622 0)
(-0.0735554 0.331066 0)
(-0.0484929 0.294974 0)
(-0.0062212 0.243699 0)
(0.0403342 0.19184 0)
(0.083535 0.14454 0)
(0.119214 0.102553 0)
(0.145225 0.0648491 0)
(0.160478 0.0297585 0)
(0.164351 -0.00464022 0)
(0.156398 -0.0404406 0)
(0.136315 -0.0799235 0)
(0.104203 -0.125491 0)
(0.0612479 -0.179234 0)
(0.0110396 -0.241505 0)
(-0.0383447 -0.307385 0)
(-0.0719644 -0.359725 0)
(-0.0701634 -0.356322 0)
(-0.0279306 -0.208271 0)
(-0.029652 0.239183 0)
(-0.0608834 0.33571 0)
(-0.022083 0.300356 0)
(0.0502521 0.239897 0)
(0.127095 0.182661 0)
(0.196322 0.13508 0)
(0.253444 0.0971075 0)
(0.297175 0.0666104 0)
(0.327608 0.0411904 0)
(0.345165 0.0187039 0)
(0.350052 -0.00277482 0)
(0.342021 -0.0251577 0)
(0.320288 -0.0506057 0)
(0.283611 -0.0818106 0)
(0.230726 -0.122175 0)
(0.16154 -0.175388 0)
(0.0794685 -0.243165 0)
(-0.00343014 -0.318913 0)
(-0.0547604 -0.368463 0)
(-0.0284745 -0.267569 0)
(0.00808793 0.281877 0)
(0.0197779 0.294965 0)
(0.139009 0.210926 0)
(0.264309 0.143392 0)
(0.364086 0.0970741 0)
(0.439932 0.0656555 0)
(0.496159 0.0441225 0)
(0.536155 0.0287923 0)
(0.562624 0.0171365 0)
(0.577422 0.00745898 0)
(0.581482 -0.00148261 0)
(0.574828 -0.0107997 0)
(0.556514 -0.0217738 0)
(0.524446 -0.0362422 0)
(0.475216 -0.0571563 0)
(0.404117 -0.0892793 0)
(0.304896 -0.139644 0)
(0.173264 -0.216307 0)
(0.0411176 -0.311606 0)
(0.0184229 -0.299985 0)
(0.299611 0.146098 0)
(0.396286 0.127508 0)
(0.557423 0.0760852 0)
(0.674456 0.0437101 0)
(0.743803 0.0255528 0)
(0.787004 0.0152207 0)
(0.815271 0.0091923 0)
(0.833685 0.00549372 0)
(0.845073 0.00301765 0)
(0.851037 0.00114673 0)
(0.852329 -0.000495269 0)
(0.849061 -0.00220516 0)
(0.840711 -0.00432429 0)
(0.825897 -0.00740711 0)
(0.801886 -0.0125142 0)
(0.763483 -0.0217552 0)
(0.699022 -0.0392671 0)
(0.583912 -0.0726478 0)
(0.415819 -0.127862 0)
(0.308822 -0.149469 0)
)
;

boundaryField
{
    movingWall
    {
        type            fixedValue;
        value           uniform (1 0 0);
    }
    fixedWalls
    {
        type            fixedValue;
        value           uniform (0 0 0);
    }
    frontAndBack
    {
        type            empty;
    }
}


// ************************************************************************* //
