/*--------------------------------*- C++ -*----------------------------------*\
| =========                 |                                                 |
| \\      /  F ield         | OpenFOAM: The Open Source CFD Toolbox           |
|  \\    /   O peration     | Version:  1.7.1                                 |
|   \\  /    A nd           | Web:      www.OpenFOAM.com                      |
|    \\/     M anipulation  |                                                 |
\*---------------------------------------------------------------------------*/
FoamFile
{
    version     2.0;
    format      ascii;
    class       volScalarField;
    location    "1400";
    object      k;
}
// * * * * * * * * * * * * * * * * * * * * * * * * * * * * * * * * * * * * * //

dimensions      [0 2 -2 0 0 0 0];

internalField   nonuniform List<scalar> 
4000
(
3.65109e-06
3.78461e-06
3.77791e-06
3.69504e-06
3.59102e-06
3.5023e-06
3.40047e-06
3.24305e-06
3.13105e-06
3.092e-06
3.09807e-06
3.16482e-06
3.27257e-06
3.3967e-06
3.50081e-06
3.57422e-06
3.66035e-06
3.68192e-06
3.54418e-06
3.18467e-06
5.06639e-06
5.25857e-06
5.17104e-06
5.09406e-06
5.01436e-06
4.84207e-06
4.6775e-06
4.59501e-06
4.53469e-06
4.54824e-06
4.58985e-06
4.61661e-06
4.66726e-06
4.76565e-06
4.8688e-06
4.98311e-06
5.18792e-06
5.26263e-06
5.20249e-06
4.70741e-06
1.22239e-05
9.06891e-06
6.74885e-06
6.83372e-06
6.71143e-06
6.4377e-06
6.27871e-06
6.25255e-06
6.21011e-06
6.31183e-06
6.46219e-06
6.44208e-06
6.44095e-06
6.5951e-06
6.76157e-06
6.92092e-06
7.0748e-06
7.22016e-06
9.86752e-06
1.33866e-05
2.54485e-05
2.28254e-05
1.87649e-05
1.44882e-05
1.08889e-05
7.7623e-06
7.7066e-06
8.05399e-06
8.03448e-06
8.19363e-06
8.44012e-06
8.33728e-06
8.21293e-06
8.12797e-06
8.29879e-06
1.14833e-05
1.52502e-05
1.97886e-05
2.37914e-05
2.62701e-05
3.1316e-05
3.00944e-05
2.76696e-05
2.42509e-05
2.08495e-05
1.80205e-05
1.47504e-05
1.2399e-05
1.13883e-05
1.1167e-05
1.15724e-05
1.17965e-05
1.30512e-05
1.5526e-05
1.86022e-05
2.14423e-05
2.4984e-05
2.83972e-05
3.0791e-05
3.19549e-05
3.50538e-05
3.53839e-05
3.44231e-05
3.27619e-05
3.09639e-05
2.92e-05
2.76293e-05
2.63773e-05
2.48871e-05
2.40101e-05
2.58284e-05
2.75997e-05
2.88232e-05
2.9813e-05
3.10747e-05
3.24747e-05
3.39579e-05
3.5393e-05
3.61574e-05
3.56369e-05
3.80288e-05
4.03357e-05
4.17446e-05
4.26472e-05
4.33226e-05
4.37173e-05
4.36887e-05
4.31438e-05
4.18781e-05
4.03062e-05
4.21273e-05
4.43387e-05
4.56027e-05
4.60465e-05
4.58729e-05
4.51841e-05
4.41745e-05
4.29399e-05
4.12197e-05
3.85943e-05
4.09665e-05
4.5421e-05
4.93859e-05
5.26917e-05
5.54193e-05
5.74711e-05
5.86633e-05
5.87898e-05
5.76127e-05
5.51469e-05
5.68016e-05
5.95986e-05
6.09285e-05
6.08269e-05
5.95357e-05
5.72878e-05
5.42938e-05
5.06774e-05
4.63621e-05
4.15264e-05
4.42795e-05
5.11445e-05
5.75124e-05
6.29377e-05
6.75471e-05
7.12348e-05
7.37612e-05
7.47962e-05
7.38153e-05
7.02792e-05
7.1876e-05
7.54235e-05
7.6638e-05
7.57181e-05
7.31445e-05
6.93039e-05
6.44732e-05
5.87713e-05
5.2069e-05
4.4822e-05
4.85359e-05
5.83733e-05
6.72092e-05
7.45398e-05
8.07734e-05
8.59494e-05
8.99539e-05
9.24543e-05
9.27726e-05
8.94696e-05
9.09579e-05
9.40115e-05
9.39181e-05
9.15544e-05
8.75574e-05
8.22905e-05
7.58961e-05
6.83453e-05
5.92286e-05
4.90487e-05
3.78461e-06
4.4211e-06
4.74393e-06
4.82666e-06
4.76395e-06
4.72019e-06
4.68162e-06
4.51879e-06
4.34786e-06
4.28961e-06
4.32288e-06
4.46471e-06
4.70609e-06
4.99098e-06
5.19602e-06
5.20774e-06
5.15361e-06
4.96327e-06
4.37474e-06
3.32831e-06
5.25856e-06
7.1196e-06
8.18414e-06
9.06971e-06
9.7107e-06
9.65687e-06
9.14981e-06
8.7276e-06
8.42413e-06
8.40693e-06
8.5136e-06
8.60758e-06
8.85838e-06
9.39256e-06
9.9799e-06
9.90583e-06
9.52104e-06
8.98667e-06
7.622e-06
5.00246e-06
9.06889e-06
9.7242e-06
1.18092e-05
1.21212e-05
1.15341e-05
1.1328e-05
1.09151e-05
1.05186e-05
1.03001e-05
1.04748e-05
1.0744e-05
1.07702e-05
1.08577e-05
1.15211e-05
1.24519e-05
1.26747e-05
1.37546e-05
1.30663e-05
1.047e-05
9.71161e-06
2.28254e-05
2.47175e-05
2.12186e-05
1.81546e-05
1.59581e-05
1.45365e-05
1.30105e-05
1.16527e-05
1.1213e-05
1.16005e-05
1.21229e-05
1.22643e-05
1.29259e-05
1.5384e-05
1.73095e-05
1.73483e-05
1.93806e-05
2.26836e-05
2.64853e-05
2.40609e-05
3.00944e-05
3.39092e-05
3.19925e-05
2.70585e-05
2.24613e-05
1.97745e-05
1.71897e-05
1.44452e-05
1.29094e-05
1.31856e-05
1.40975e-05
1.43919e-05
1.60539e-05
1.84807e-05
2.05916e-05
2.33416e-05
2.81192e-05
3.2901e-05
3.45931e-05
3.10209e-05
3.53839e-05
3.701e-05
3.62748e-05
3.41189e-05
3.07911e-05
2.68183e-05
2.37612e-05
2.13854e-05
1.88471e-05
1.80065e-05
1.97274e-05
2.16658e-05
2.33882e-05
2.57008e-05
2.86855e-05
3.25792e-05
3.55617e-05
3.73739e-05
3.78664e-05
3.6239e-05
4.03357e-05
4.20182e-05
4.31936e-05
4.36734e-05
4.36207e-05
4.18418e-05
3.79726e-05
3.43804e-05
3.15085e-05
2.98615e-05
3.19836e-05
3.5011e-05
3.84146e-05
4.19208e-05
4.53568e-05
4.62435e-05
4.55512e-05
4.45244e-05
4.29823e-05
4.10801e-05
4.5421e-05
4.91453e-05
5.27447e-05
5.60866e-05
5.96024e-05
6.22841e-05
6.28212e-05
6.07011e-05
5.6406e-05
5.14262e-05
5.42835e-05
6.07837e-05
6.51684e-05
6.69055e-05
6.57419e-05
6.23446e-05
5.81424e-05
5.4259e-05
5.02086e-05
4.60586e-05
5.11445e-05
5.98333e-05
6.76202e-05
7.46751e-05
8.16176e-05
8.75694e-05
9.11211e-05
9.14496e-05
8.71149e-05
7.70479e-05
7.97835e-05
8.98513e-05
9.43956e-05
9.40921e-05
9.0171e-05
8.37867e-05
7.64225e-05
6.89838e-05
6.09137e-05
5.17016e-05
5.83733e-05
6.99613e-05
8.08365e-05
9.03675e-05
9.89009e-05
0.000106359
0.000112444
0.000116573
0.000117743
0.000114646
0.000116261
0.000119296
0.00011825
0.00011415
0.000107965
0.000100333
9.15883e-05
8.18183e-05
7.06764e-05
5.88153e-05
3.77791e-06
4.74393e-06
5.1893e-06
5.30949e-06
5.29553e-06
5.31804e-06
5.41308e-06
5.40529e-06
5.34656e-06
5.35059e-06
5.408e-06
5.54442e-06
5.77341e-06
6.02862e-06
6.1874e-06
6.10908e-06
5.91116e-06
5.58386e-06
4.87144e-06
3.43591e-06
5.17104e-06
8.18416e-06
9.45465e-06
1.04879e-05
1.1223e-05
1.12329e-05
1.09209e-05
1.07214e-05
1.06073e-05
1.07724e-05
1.09956e-05
1.108e-05
1.12437e-05
1.16667e-05
1.22225e-05
1.21158e-05
1.13857e-05
1.0516e-05
9.05653e-06
5.07566e-06
6.74885e-06
1.18092e-05
1.35334e-05
1.33995e-05
1.3573e-05
1.35896e-05
1.30738e-05
1.27095e-05
1.25256e-05
1.27489e-05
1.31376e-05
1.33508e-05
1.3451e-05
1.41098e-05
1.54196e-05
1.53088e-05
1.52624e-05
1.53377e-05
1.28763e-05
6.82607e-06
1.87649e-05
2.12186e-05
2.02553e-05
1.9158e-05
1.86988e-05
1.77441e-05
1.54825e-05
1.40094e-05
1.34691e-05
1.36535e-05
1.43135e-05
1.509e-05
1.59046e-05
1.87859e-05
2.22251e-05
2.13796e-05
2.08127e-05
2.17204e-05
2.287e-05
1.99547e-05
2.76696e-05
3.19924e-05
3.00652e-05
2.61047e-05
2.30562e-05
2.13873e-05
1.94661e-05
1.71707e-05
1.53721e-05
1.48401e-05
1.61591e-05
1.83826e-05
2.00083e-05
2.16817e-05
2.28252e-05
2.42435e-05
2.73696e-05
3.1401e-05
3.31536e-05
2.87343e-05
3.44231e-05
3.62748e-05
3.46845e-05
3.16804e-05
2.78163e-05
2.45369e-05
2.1977e-05
1.99199e-05
1.77391e-05
1.69118e-05
1.81346e-05
1.98257e-05
2.13598e-05
2.33562e-05
2.59168e-05
2.91789e-05
3.30307e-05
3.59552e-05
3.75034e-05
3.55712e-05
4.17446e-05
4.31936e-05
4.24624e-05
4.06966e-05
3.75199e-05
3.43276e-05
3.1129e-05
2.83591e-05
2.61273e-05
2.46554e-05
2.60299e-05
2.82918e-05
3.09058e-05
3.35773e-05
3.65405e-05
3.94655e-05
4.23395e-05
4.3859e-05
4.44121e-05
4.27495e-05
4.93859e-05
5.27447e-05
5.57396e-05
5.76423e-05
5.81093e-05
5.54535e-05
5.30346e-05
5.05507e-05
4.68576e-05
4.22556e-05
4.45903e-05
5.03807e-05
5.41348e-05
5.6279e-05
5.82751e-05
6.04641e-05
5.94963e-05
5.7229e-05
5.39267e-05
5.01691e-05
5.75124e-05
6.76202e-05
8.18712e-05
9.69827e-05
0.000110912
0.000122479
0.000128052
0.000128468
0.000120986
0.000104015
0.000106989
0.000124845
0.000132344
0.000131701
0.00012496
0.00011266
9.83948e-05
8.31397e-05
6.87392e-05
5.81262e-05
6.72092e-05
8.08365e-05
9.36641e-05
0.000105242
0.000115879
0.000125465
0.000133543
0.000139349
0.000141569
0.000138721
0.000140469
0.000143428
0.000141221
0.000135307
0.000127005
0.000117173
0.000106314
9.45326e-05
8.14961e-05
6.76639e-05
3.69504e-06
4.82666e-06
5.30949e-06
5.543e-06
5.62847e-06
5.70368e-06
5.88805e-06
6.05213e-06
6.18092e-06
6.30656e-06
6.39956e-06
6.46687e-06
6.58074e-06
6.69381e-06
6.72638e-06
6.55541e-06
6.21891e-06
5.73753e-06
4.91703e-06
3.38931e-06
5.09406e-06
9.06973e-06
1.0488e-05
1.13654e-05
1.18245e-05
1.18139e-05
1.18174e-05
1.19679e-05
1.22117e-05
1.27108e-05
1.31169e-05
1.30973e-05
1.30198e-05
1.30998e-05
1.33663e-05
1.33284e-05
1.25976e-05
1.13997e-05
9.63632e-06
4.8605e-06
6.83372e-06
1.21212e-05
1.33995e-05
1.41013e-05
1.47948e-05
1.46554e-05
1.43565e-05
1.42544e-05
1.4307e-05
1.48167e-05
1.53803e-05
1.55528e-05
1.55187e-05
1.57184e-05
1.67751e-05
1.69562e-05
1.59129e-05
1.48244e-05
1.2817e-05
6.57662e-06
1.44881e-05
1.81546e-05
1.9158e-05
1.98496e-05
2.01923e-05
1.86719e-05
1.65872e-05
1.55847e-05
1.52263e-05
1.56395e-05
1.64027e-05
1.71965e-05
1.79854e-05
1.99058e-05
2.37599e-05
2.43185e-05
2.22379e-05
2.03795e-05
1.8875e-05
1.46551e-05
2.42509e-05
2.70585e-05
2.61047e-05
2.44208e-05
2.33778e-05
2.25956e-05
2.09685e-05
1.88383e-05
1.71968e-05
1.69702e-05
1.8186e-05
2.05382e-05
2.28272e-05
2.43183e-05
2.48947e-05
2.49163e-05
2.5731e-05
2.74298e-05
2.84433e-05
2.54566e-05
3.27619e-05
3.41189e-05
3.16804e-05
2.83976e-05
2.55072e-05
2.3208e-05
2.14931e-05
2.02014e-05
1.9199e-05
1.9494e-05
2.02488e-05
2.07445e-05
2.14525e-05
2.26705e-05
2.4363e-05
2.65925e-05
2.95553e-05
3.30456e-05
3.56154e-05
3.41011e-05
4.26472e-05
4.36734e-05
4.06966e-05
3.67877e-05
3.35645e-05
3.09972e-05
2.89605e-05
2.7467e-05
2.63923e-05
2.56922e-05
2.62712e-05
2.72969e-05
2.85884e-05
3.01006e-05
3.20683e-05
3.46719e-05
3.81036e-05
4.21205e-05
4.51116e-05
4.38089e-05
5.26917e-05
5.60866e-05
5.76423e-05
5.76126e-05
5.68606e-05
5.647e-05
5.61132e-05
5.51581e-05
5.18799e-05
4.66266e-05
4.8433e-05
5.41581e-05
5.69965e-05
5.73924e-05
5.72917e-05
5.76382e-05
5.87777e-05
5.89641e-05
5.72613e-05
5.35531e-05
6.29377e-05
7.46751e-05
9.69827e-05
0.000124448
0.000144267
0.000156282
0.000165175
0.000167808
0.000157964
0.000136927
0.000138999
0.000160809
0.000170307
0.000166951
0.000156839
0.000144367
0.000124651
9.76691e-05
7.55936e-05
6.35687e-05
7.45398e-05
9.03676e-05
0.000105242
0.000118961
0.00013181
0.000143781
0.000154295
0.000162261
0.000166002
0.000164118
0.000166039
0.000168203
0.000164338
0.000156079
0.000145201
0.000132917
0.000119852
0.000105985
9.09676e-05
7.49925e-05
3.59102e-06
4.76395e-06
5.29554e-06
5.62847e-06
5.84282e-06
6.02656e-06
6.26338e-06
6.55339e-06
6.89777e-06
7.22844e-06
7.38401e-06
7.28879e-06
7.18716e-06
7.07651e-06
6.91618e-06
6.6414e-06
6.25164e-06
5.65953e-06
4.73977e-06
3.28997e-06
5.01437e-06
9.71073e-06
1.1223e-05
1.18245e-05
1.19813e-05
1.20738e-05
1.23863e-05
1.28746e-05
1.35757e-05
1.46023e-05
1.53042e-05
1.49842e-05
1.44358e-05
1.40331e-05
1.38102e-05
1.36204e-05
1.29892e-05
1.18037e-05
9.89651e-06
4.57888e-06
6.71143e-06
1.15341e-05
1.3573e-05
1.47949e-05
1.52236e-05
1.51366e-05
1.52314e-05
1.53634e-05
1.57736e-05
1.67577e-05
1.76301e-05
1.75676e-05
1.71802e-05
1.68301e-05
1.69415e-05
1.72941e-05
1.64576e-05
1.45245e-05
1.17747e-05
6.40872e-06
1.08889e-05
1.59581e-05
1.86988e-05
2.01923e-05
1.98846e-05
1.82457e-05
1.70574e-05
1.65415e-05
1.67288e-05
1.77638e-05
1.86461e-05
1.89972e-05
1.93612e-05
2.00804e-05
2.22867e-05
2.44494e-05
2.34564e-05
2.0249e-05
1.63044e-05
1.04211e-05
2.08496e-05
2.24613e-05
2.30562e-05
2.33778e-05
2.36056e-05
2.30052e-05
2.14121e-05
1.95504e-05
1.86227e-05
1.9611e-05
2.06679e-05
2.18866e-05
2.38779e-05
2.54993e-05
2.60833e-05
2.55097e-05
2.4605e-05
2.40204e-05
2.33318e-05
2.16524e-05
3.09639e-05
3.07911e-05
2.78163e-05
2.55072e-05
2.37163e-05
2.23513e-05
2.15082e-05
2.10472e-05
2.13532e-05
2.32965e-05
2.36787e-05
2.26478e-05
2.23247e-05
2.25736e-05
2.34046e-05
2.46285e-05
2.64371e-05
2.89914e-05
3.23864e-05
3.23659e-05
4.33226e-05
4.36207e-05
3.75199e-05
3.35645e-05
3.11274e-05
2.96055e-05
2.88038e-05
2.88373e-05
2.96375e-05
3.11257e-05
3.04471e-05
2.90482e-05
2.856e-05
2.88252e-05
2.97585e-05
3.15118e-05
3.43735e-05
3.89116e-05
4.52618e-05
4.45483e-05
5.54193e-05
5.96023e-05
5.81093e-05
5.68606e-05
5.88849e-05
6.16187e-05
6.40312e-05
6.50201e-05
6.24826e-05
5.71026e-05
5.7843e-05
6.28847e-05
6.47003e-05
6.31469e-05
6.0482e-05
5.8078e-05
5.69057e-05
5.90949e-05
6.07569e-05
5.62999e-05
6.75471e-05
8.16176e-05
0.000110912
0.000144267
0.000169154
0.000192462
0.000209127
0.000215693
0.000203669
0.000175981
0.000177573
0.000205444
0.000216559
0.000209174
0.000191395
0.000167356
0.000143201
0.000110787
8.22893e-05
6.81571e-05
8.07734e-05
9.89009e-05
0.000115879
0.00013181
0.000147532
0.00016271
0.000176337
0.000187213
0.000193563
0.000194153
0.000196558
0.000196331
0.000189678
0.000178285
0.000164122
0.000148503
0.000132546
0.000116497
9.9429e-05
8.11979e-05
3.50231e-06
4.72019e-06
5.31804e-06
5.70368e-06
6.02656e-06
6.31039e-06
6.60976e-06
6.99199e-06
7.54132e-06
8.19905e-06
8.4712e-06
8.05765e-06
7.64832e-06
7.28346e-06
6.95018e-06
6.58043e-06
6.101e-06
5.43162e-06
4.50621e-06
3.18524e-06
4.84208e-06
9.65689e-06
1.12329e-05
1.18139e-05
1.20738e-05
1.23945e-05
1.29265e-05
1.37e-05
1.4917e-05
1.6725e-05
1.79252e-05
1.69942e-05
1.56853e-05
1.46566e-05
1.3886e-05
1.32651e-05
1.25625e-05
1.14938e-05
9.66111e-06
4.39085e-06
6.43771e-06
1.1328e-05
1.35896e-05
1.46554e-05
1.51366e-05
1.55403e-05
1.59119e-05
1.62789e-05
1.70731e-05
1.85352e-05
1.97829e-05
1.93713e-05
1.8413e-05
1.75993e-05
1.69027e-05
1.64482e-05
1.58273e-05
1.41895e-05
1.13834e-05
6.25793e-06
7.76231e-06
1.45365e-05
1.77441e-05
1.86718e-05
1.82457e-05
1.76184e-05
1.72569e-05
1.71775e-05
1.78837e-05
1.97214e-05
2.10747e-05
2.07338e-05
2.0252e-05
2.00841e-05
2.03201e-05
2.13239e-05
2.18326e-05
2.00546e-05
1.56622e-05
7.33225e-06
1.80205e-05
1.97745e-05
2.13873e-05
2.25956e-05
2.30051e-05
2.23116e-05
2.09732e-05
1.97556e-05
1.97349e-05
2.19713e-05
2.31657e-05
2.27599e-05
2.36729e-05
2.50692e-05
2.56943e-05
2.52344e-05
2.37969e-05
2.19888e-05
2.00787e-05
1.80241e-05
2.92e-05
2.68183e-05
2.45369e-05
2.3208e-05
2.23513e-05
2.18455e-05
2.17487e-05
2.18856e-05
2.33516e-05
2.70684e-05
2.71205e-05
2.44987e-05
2.32751e-05
2.26581e-05
2.26235e-05
2.30157e-05
2.38044e-05
2.52655e-05
2.78781e-05
3.05448e-05
4.37173e-05
4.18418e-05
3.43276e-05
3.09972e-05
2.96055e-05
2.92111e-05
2.96176e-05
3.11677e-05
3.40912e-05
3.87504e-05
3.66858e-05
3.1941e-05
2.95667e-05
2.86055e-05
2.85457e-05
2.93128e-05
3.12383e-05
3.52783e-05
4.36836e-05
4.49223e-05
5.74711e-05
6.22841e-05
5.54534e-05
5.647e-05
6.16186e-05
6.75339e-05
7.26055e-05
7.48567e-05
7.19252e-05
6.63264e-05
6.58555e-05
7.06175e-05
7.26686e-05
6.98628e-05
6.47863e-05
5.95039e-05
5.55167e-05
5.5906e-05
6.34656e-05
5.83162e-05
7.12348e-05
8.75694e-05
0.000122479
0.000156282
0.000192462
0.000225469
0.000249414
0.000256468
0.000233896
0.000192634
0.000193992
0.000236051
0.000256684
0.000248132
0.000223276
0.000189724
0.000153723
0.000121609
8.7958e-05
7.17803e-05
8.59494e-05
0.000106359
0.000125465
0.000143781
0.00016271
0.000181275
0.000198431
0.000212841
0.0002228
0.000227395
0.000230698
0.00022652
0.000216055
0.00020083
0.000182899
0.00016372
0.000144422
0.000125975
0.000106805
8.63197e-05
3.40047e-06
4.68162e-06
5.41308e-06
5.88805e-06
6.26338e-06
6.60976e-06
6.98026e-06
7.46166e-06
8.23028e-06
9.4345e-06
9.92246e-06
8.85205e-06
8.04587e-06
7.45686e-06
6.96876e-06
6.46674e-06
5.87794e-06
5.15927e-06
4.25575e-06
3.03994e-06
4.6775e-06
9.14983e-06
1.09209e-05
1.18174e-05
1.23863e-05
1.29265e-05
1.3631e-05
1.47232e-05
1.66688e-05
2.02833e-05
2.24782e-05
1.9711e-05
1.70151e-05
1.51371e-05
1.38877e-05
1.29168e-05
1.19697e-05
1.07951e-05
8.88795e-06
4.2206e-06
6.27872e-06
1.09151e-05
1.30738e-05
1.43565e-05
1.52314e-05
1.59119e-05
1.64901e-05
1.72117e-05
1.86163e-05
2.14968e-05
2.34494e-05
2.15027e-05
1.95299e-05
1.80953e-05
1.69756e-05
1.58887e-05
1.46714e-05
1.30074e-05
1.05692e-05
6.01836e-06
7.70661e-06
1.30105e-05
1.54825e-05
1.65872e-05
1.70574e-05
1.72569e-05
1.74039e-05
1.7865e-05
1.94753e-05
2.36762e-05
2.60801e-05
2.29529e-05
2.09078e-05
1.98865e-05
1.92225e-05
1.86293e-05
1.79111e-05
1.65249e-05
1.3364e-05
7.06642e-06
1.47504e-05
1.71897e-05
1.94661e-05
2.09684e-05
2.1412e-05
2.09732e-05
2.0266e-05
1.99051e-05
2.13333e-05
2.767e-05
3.00433e-05
2.45269e-05
2.31117e-05
2.35121e-05
2.39775e-05
2.35845e-05
2.21461e-05
1.98897e-05
1.71245e-05
1.39479e-05
2.76293e-05
2.37613e-05
2.1977e-05
2.14931e-05
2.15082e-05
2.17487e-05
2.20704e-05
2.27252e-05
2.56258e-05
3.45106e-05
3.51712e-05
2.67821e-05
2.39765e-05
2.28489e-05
2.20737e-05
2.16457e-05
2.15847e-05
2.21604e-05
2.4305e-05
2.87618e-05
4.36887e-05
3.79726e-05
3.1129e-05
2.89605e-05
2.88038e-05
2.96176e-05
3.12099e-05
3.3996e-05
3.94758e-05
5.08474e-05
4.79041e-05
3.62574e-05
3.13962e-05
2.91603e-05
2.80758e-05
2.77783e-05
2.85285e-05
3.1386e-05
3.91018e-05
4.47417e-05
5.86633e-05
6.28212e-05
5.30346e-05
5.61132e-05
6.40312e-05
7.26055e-05
7.92571e-05
8.10219e-05
7.67396e-05
7.55442e-05
7.41088e-05
7.44322e-05
7.77687e-05
7.52666e-05
6.86775e-05
6.09042e-05
5.43114e-05
5.28188e-05
6.39899e-05
5.94115e-05
7.37612e-05
9.1121e-05
0.000128052
0.000165175
0.000209127
0.000249414
0.000277082
0.000277095
0.000235682
0.000198977
0.000200139
0.000239391
0.000278629
0.000275312
0.000246305
0.000205542
0.000161524
0.000126321
9.11116e-05
7.41892e-05
8.9954e-05
0.000112444
0.000133543
0.000154295
0.000176337
0.000198431
0.000219583
0.000238628
0.00025471
0.000268247
0.000273145
0.000259822
0.000243025
0.000222784
0.0002005
0.000177522
0.000154911
0.000133956
0.000112792
9.02469e-05
3.24305e-06
4.51879e-06
5.40528e-06
6.05212e-06
6.55339e-06
6.99199e-06
7.46166e-06
8.10884e-06
9.17315e-06
1.09782e-05
1.17032e-05
9.81869e-06
8.52014e-06
7.6561e-06
6.98647e-06
6.34461e-06
5.66353e-06
4.89981e-06
3.99352e-06
2.88445e-06
4.59501e-06
8.72762e-06
1.07214e-05
1.19679e-05
1.28746e-05
1.37e-05
1.47232e-05
1.64534e-05
1.93639e-05
2.31327e-05
2.6096e-05
2.37031e-05
1.8947e-05
1.58793e-05
1.41627e-05
1.29202e-05
1.17181e-05
1.02701e-05
8.17808e-06
4.07879e-06
6.25256e-06
1.05187e-05
1.27095e-05
1.42545e-05
1.53634e-05
1.62789e-05
1.72117e-05
1.86921e-05
2.13013e-05
2.91461e-05
3.27819e-05
2.50753e-05
2.11038e-05
1.85972e-05
1.70331e-05
1.56935e-05
1.42227e-05
1.23424e-05
1.00365e-05
5.85059e-06
8.054e-06
1.16527e-05
1.40094e-05
1.55847e-05
1.65415e-05
1.71775e-05
1.7865e-05
1.95428e-05
2.41939e-05
4.5125e-05
5.08891e-05
2.90039e-05
2.24846e-05
1.98116e-05
1.85231e-05
1.74719e-05
1.60837e-05
1.41416e-05
1.14545e-05
7.18497e-06
1.2399e-05
1.44452e-05
1.71707e-05
1.88383e-05
1.95503e-05
1.97556e-05
1.99051e-05
2.13309e-05
2.89862e-05
6.9621e-05
7.82e-05
3.4363e-05
2.40011e-05
2.19956e-05
2.16841e-05
2.12319e-05
1.99016e-05
1.74028e-05
1.4115e-05
1.09171e-05
2.63774e-05
2.13854e-05
1.99199e-05
2.02014e-05
2.10472e-05
2.18856e-05
2.27252e-05
2.46753e-05
3.50936e-05
9.16831e-05
0.000100227
3.81875e-05
2.55292e-05
2.31019e-05
2.19156e-05
2.08131e-05
1.99519e-05
1.97851e-05
2.15375e-05
2.70732e-05
4.31438e-05
3.43805e-05
2.83591e-05
2.7467e-05
2.88373e-05
3.11677e-05
3.3996e-05
3.87317e-05
5.32484e-05
0.000113977
0.000116039
5.07631e-05
3.5491e-05
3.09429e-05
2.85021e-05
2.68511e-05
2.62259e-05
2.77994e-05
3.43581e-05
4.39486e-05
5.87898e-05
6.07011e-05
5.05506e-05
5.51581e-05
6.50201e-05
7.48567e-05
8.10219e-05
8.11911e-05
8.29705e-05
0.000126063
0.000128587
8.07602e-05
7.75464e-05
7.64744e-05
7.00748e-05
6.09492e-05
5.24709e-05
4.96994e-05
6.1867e-05
5.94017e-05
7.47962e-05
9.14496e-05
0.000128468
0.000167808
0.000215693
0.000256468
0.000277095
0.000257989
0.000226086
0.000256457
0.000264952
0.000229162
0.0002611
0.000276914
0.000252689
0.00021054
0.000162493
0.000125116
9.09615e-05
7.5079e-05
9.24543e-05
0.000116573
0.000139349
0.000162261
0.000187213
0.000212841
0.000238628
0.000264683
0.000293172
0.000325811
0.00033387
0.000300303
0.000270668
0.000243016
0.000215583
0.000188661
0.000162864
0.000139648
0.00011681
9.26552e-05
3.13105e-06
4.34786e-06
5.34656e-06
6.18092e-06
6.89776e-06
7.54131e-06
8.23027e-06
9.17313e-06
1.03028e-05
1.23315e-05
1.25367e-05
1.05318e-05
9.16515e-06
7.98057e-06
7.11277e-06
6.34599e-06
5.57433e-06
4.73541e-06
3.8144e-06
2.7897e-06
4.5347e-06
8.42416e-06
1.06073e-05
1.22117e-05
1.35757e-05
1.49169e-05
1.66688e-05
1.93638e-05
2.15994e-05
5.02143e-05
5.98612e-05
2.55275e-05
2.14937e-05
1.74578e-05
1.51204e-05
1.34888e-05
1.19392e-05
1.01577e-05
7.83642e-06
4.05952e-06
6.21012e-06
1.03001e-05
1.25256e-05
1.4307e-05
1.57736e-05
1.70731e-05
1.86163e-05
2.13013e-05
3.14998e-05
0.000128347
0.000146473
3.68262e-05
2.34914e-05
1.96176e-05
1.74899e-05
1.58428e-05
1.41262e-05
1.21597e-05
9.92292e-06
5.84795e-06
8.03449e-06
1.1213e-05
1.34691e-05
1.52263e-05
1.67288e-05
1.78837e-05
1.94753e-05
2.41938e-05
5.26219e-05
0.000232149
0.000260416
6.21971e-05
2.72495e-05
2.08179e-05
1.85457e-05
1.70579e-05
1.53824e-05
1.35374e-05
1.11062e-05
7.40355e-06
1.13884e-05
1.29094e-05
1.53721e-05
1.71968e-05
1.86227e-05
1.97349e-05
2.13333e-05
2.89862e-05
8.60646e-05
0.000355137
0.000395969
0.000102491
3.24527e-05
2.23872e-05
2.03644e-05
1.92422e-05
1.7861e-05
1.58263e-05
1.24667e-05
9.55653e-06
2.48871e-05
1.88471e-05
1.7739e-05
1.91989e-05
2.13531e-05
2.33516e-05
2.56257e-05
3.50935e-05
0.000117224
0.000454062
0.000505992
0.000134438
3.67356e-05
2.50266e-05
2.24859e-05
2.05856e-05
1.88922e-05
1.81336e-05
1.97394e-05
2.54018e-05
4.18781e-05
3.15086e-05
2.61272e-05
2.63923e-05
2.96375e-05
3.40912e-05
3.94758e-05
5.32484e-05
0.000141939
0.000498223
0.000552506
0.000155466
5.07323e-05
3.58075e-05
3.06924e-05
2.69217e-05
2.44579e-05
2.48691e-05
3.07363e-05
4.25059e-05
5.76127e-05
5.6406e-05
4.68575e-05
5.18799e-05
6.24825e-05
7.19252e-05
7.67396e-05
8.29705e-05
0.000152405
0.000470569
0.000518901
0.000163359
7.99508e-05
7.20742e-05
6.67279e-05
5.77635e-05
4.85166e-05
4.54482e-05
5.72922e-05
5.81069e-05
7.38154e-05
8.71149e-05
0.000120986
0.000157964
0.000203669
0.000233896
0.000235681
0.000226086
0.000272345
0.000431954
0.000462546
0.000286597
0.000229435
0.000236493
0.000230268
0.00019739
0.000151113
0.000115609
8.63994e-05
7.39969e-05
9.27726e-05
0.000117743
0.000141569
0.000166002
0.000193563
0.0002228
0.00025471
0.000293172
0.000343348
0.000403431
0.00041476
0.000354448
0.000301492
0.000260549
0.000226349
0.000195316
0.000166575
0.000141739
0.00011787
9.28801e-05
3.092e-06
4.28962e-06
5.3506e-06
6.30656e-06
7.22844e-06
8.19905e-06
9.43449e-06
1.09782e-05
1.23315e-05
1.2435e-05
1.25351e-05
1.17223e-05
1.03751e-05
8.72046e-06
7.52109e-06
6.59084e-06
5.70914e-06
4.81904e-06
3.86987e-06
2.82481e-06
4.54825e-06
8.40696e-06
1.07724e-05
1.27109e-05
1.46023e-05
1.6725e-05
2.02832e-05
2.31326e-05
5.02142e-05
5.252e-05
5.59392e-05
6.07283e-05
2.50619e-05
2.07638e-05
1.69414e-05
1.457e-05
1.24485e-05
1.0285e-05
7.80599e-06
4.11906e-06
6.31184e-06
1.04748e-05
1.27489e-05
1.48167e-05
1.67577e-05
1.85352e-05
2.14967e-05
2.91461e-05
0.000128347
0.000103084
0.000106507
0.00015468
3.21705e-05
2.19101e-05
1.86239e-05
1.66332e-05
1.44558e-05
1.22799e-05
1.0073e-05
5.95419e-06
8.19364e-06
1.16006e-05
1.36535e-05
1.56395e-05
1.77638e-05
1.97214e-05
2.36762e-05
4.51249e-05
0.000232148
0.000170696
0.000171083
0.000276439
5.05088e-05
2.44436e-05
1.98631e-05
1.76976e-05
1.54766e-05
1.35036e-05
1.14976e-05
7.66655e-06
1.1167e-05
1.31856e-05
1.48402e-05
1.69702e-05
1.9611e-05
2.19713e-05
2.76699e-05
6.96208e-05
0.000355136
0.000255523
0.0002502
0.000416809
7.87252e-05
2.82977e-05
2.17513e-05
1.9384e-05
1.68089e-05
1.49218e-05
1.30458e-05
9.46614e-06
2.40101e-05
1.80064e-05
1.69119e-05
1.9494e-05
2.32965e-05
2.70684e-05
3.45106e-05
9.16828e-05
0.000454062
0.000350212
0.000337851
0.00053071
0.000102285
3.36898e-05
2.56471e-05
2.2092e-05
1.87076e-05
1.7084e-05
1.89579e-05
2.4474e-05
4.03062e-05
2.98615e-05
2.46554e-05
2.56922e-05
3.11257e-05
3.87504e-05
5.08474e-05
0.000113977
0.000498222
0.000438928
0.000419486
0.000579807
0.000120755
4.79914e-05
3.56416e-05
2.86464e-05
2.41139e-05
2.35643e-05
2.91877e-05
4.08117e-05
5.51469e-05
5.14262e-05
4.22555e-05
4.66265e-05
5.71025e-05
6.63263e-05
7.55442e-05
0.000126063
0.000470569
0.000492303
0.000469086
0.000544703
0.000130681
7.12217e-05
6.12772e-05
5.23969e-05
4.32974e-05
4.07825e-05
5.21937e-05
5.5515e-05
7.02793e-05
7.70478e-05
0.000104015
0.000136926
0.00017598
0.000192634
0.000198977
0.000256457
0.000431954
0.000506242
0.00048919
0.000480144
0.000269837
0.00019916
0.000187957
0.000168638
0.000129816
9.82212e-05
7.67334e-05
7.03976e-05
8.94697e-05
0.000114646
0.000138721
0.000164118
0.000194153
0.000227395
0.000268247
0.000325811
0.000403431
0.000456171
0.000450567
0.000420831
0.000338272
0.000275776
0.000231548
0.000195941
0.000164478
0.0001385
0.000114523
8.94267e-05
3.09808e-06
4.32289e-06
5.40801e-06
6.39958e-06
7.38403e-06
8.47122e-06
9.92249e-06
1.17032e-05
1.25367e-05
1.25351e-05
1.27614e-05
1.22667e-05
1.07299e-05
8.97686e-06
7.67096e-06
6.70382e-06
5.8339e-06
4.96593e-06
3.99755e-06
2.89156e-06
4.58986e-06
8.51364e-06
1.09957e-05
1.31169e-05
1.53042e-05
1.79253e-05
2.24782e-05
2.6096e-05
5.98613e-05
5.59393e-05
5.75094e-05
6.64785e-05
2.60914e-05
2.17615e-05
1.74431e-05
1.48314e-05
1.2578e-05
1.03732e-05
7.89864e-06
4.17633e-06
6.46221e-06
1.0744e-05
1.31376e-05
1.53803e-05
1.76302e-05
1.97829e-05
2.34495e-05
3.2782e-05
0.000146473
0.000106507
0.000108087
0.000170193
3.45913e-05
2.3045e-05
1.93045e-05
1.71406e-05
1.48173e-05
1.26599e-05
1.03776e-05
6.09699e-06
8.44013e-06
1.2123e-05
1.43136e-05
1.64028e-05
1.86462e-05
2.10748e-05
2.60802e-05
5.08893e-05
0.000260417
0.000171083
0.000170775
0.000302289
5.55793e-05
2.65891e-05
2.10194e-05
1.84307e-05
1.61353e-05
1.40994e-05
1.19396e-05
7.93298e-06
1.15724e-05
1.40976e-05
1.61591e-05
1.8186e-05
2.06679e-05
2.31658e-05
3.00435e-05
7.82006e-05
0.000395971
0.0002502
0.000246394
0.000454644
8.81965e-05
3.14321e-05
2.33262e-05
2.05623e-05
1.80311e-05
1.62348e-05
1.39697e-05
1.02303e-05
2.58284e-05
1.97274e-05
1.81346e-05
2.02489e-05
2.36788e-05
2.71206e-05
3.51714e-05
0.000100228
0.000505995
0.000337851
0.00033014
0.000582434
0.000114936
3.66922e-05
2.70749e-05
2.33147e-05
1.9854e-05
1.83873e-05
2.04351e-05
2.6376e-05
4.21274e-05
3.19836e-05
2.60299e-05
2.62712e-05
3.04471e-05
3.66858e-05
4.79042e-05
0.00011604
0.00055251
0.000419486
0.000408041
0.000638078
0.000129912
4.7994e-05
3.53606e-05
2.89908e-05
2.50194e-05
2.48479e-05
3.10393e-05
4.25689e-05
5.68017e-05
5.42835e-05
4.45902e-05
4.8433e-05
5.78429e-05
6.58554e-05
7.41088e-05
0.000128588
0.000518905
0.000469085
0.000457132
0.000600407
0.000139444
7.16261e-05
6.16607e-05
5.35829e-05
4.49375e-05
4.25321e-05
5.47749e-05
5.72384e-05
7.18761e-05
7.97835e-05
0.000106989
0.000138999
0.000177573
0.000193992
0.000200139
0.000264953
0.000462548
0.000489189
0.00048478
0.000516758
0.00028268
0.000202327
0.00018863
0.000170666
0.000132685
0.000101871
7.96457e-05
7.23707e-05
9.0958e-05
0.000116261
0.000140469
0.000166039
0.000196559
0.000230699
0.000273146
0.000333871
0.000414761
0.000450567
0.000454418
0.000440008
0.00035256
0.000285577
0.000238565
0.000201406
0.000168974
0.000142392
0.000117717
9.1887e-05
3.16483e-06
4.46472e-06
5.54444e-06
6.46689e-06
7.28882e-06
8.05768e-06
8.8521e-06
9.81874e-06
1.05319e-05
1.17224e-05
1.22667e-05
1.03335e-05
9.28118e-06
8.17403e-06
7.33837e-06
6.61071e-06
5.8746e-06
5.06656e-06
4.11941e-06
2.95772e-06
4.61662e-06
8.60762e-06
1.108e-05
1.30974e-05
1.49842e-05
1.69942e-05
1.97111e-05
2.37033e-05
2.55277e-05
6.07285e-05
6.64787e-05
2.62651e-05
2.24083e-05
1.84577e-05
1.59184e-05
1.40562e-05
1.22753e-05
1.03549e-05
7.97828e-06
4.20139e-06
6.4421e-06
1.07702e-05
1.33508e-05
1.55529e-05
1.75677e-05
1.93714e-05
2.15029e-05
2.50755e-05
3.68264e-05
0.00015468
0.000170193
4.07565e-05
2.50282e-05
2.08739e-05
1.85796e-05
1.68241e-05
1.48955e-05
1.29214e-05
1.04654e-05
6.10746e-06
8.3373e-06
1.22644e-05
1.50901e-05
1.71965e-05
1.89973e-05
2.07339e-05
2.29531e-05
2.90042e-05
6.21977e-05
0.000276441
0.00030229
7.10195e-05
3.10258e-05
2.33058e-05
2.05655e-05
1.87464e-05
1.69895e-05
1.49241e-05
1.19979e-05
7.89066e-06
1.17964e-05
1.43919e-05
1.83827e-05
2.05383e-05
2.18868e-05
2.27601e-05
2.45271e-05
3.43634e-05
0.000102492
0.000416811
0.000454645
0.000117479
3.85242e-05
2.57609e-05
2.32166e-05
2.21152e-05
2.07801e-05
1.84378e-05
1.40374e-05
1.11421e-05
2.75997e-05
2.16658e-05
1.98257e-05
2.07446e-05
2.2648e-05
2.44988e-05
2.67823e-05
3.81879e-05
0.000134439
0.000530713
0.000582435
0.000156956
4.32941e-05
2.80434e-05
2.48735e-05
2.26803e-05
2.07737e-05
2.01168e-05
2.20992e-05
2.84502e-05
4.43387e-05
3.5011e-05
2.82918e-05
2.72968e-05
2.90482e-05
3.19409e-05
3.62574e-05
5.07633e-05
0.000155467
0.000579811
0.000638079
0.000177924
5.32734e-05
3.58657e-05
3.10025e-05
2.79407e-05
2.62885e-05
2.74774e-05
3.45443e-05
4.50013e-05
5.95986e-05
6.07837e-05
5.03806e-05
5.4158e-05
6.28846e-05
7.06174e-05
7.4432e-05
8.07602e-05
0.000163361
0.000544707
0.000600408
0.000183358
8.12409e-05
7.18617e-05
6.77083e-05
6.0054e-05
5.15967e-05
4.86784e-05
6.10207e-05
6.02046e-05
7.54236e-05
8.98514e-05
0.000124845
0.000160809
0.000205444
0.000236051
0.000239391
0.000229163
0.000286598
0.000480147
0.000516759
0.000307761
0.000233121
0.000233789
0.000230817
0.000201764
0.000157028
0.000120996
8.93594e-05
7.60809e-05
9.40117e-05
0.000119296
0.000143428
0.000168204
0.000196332
0.00022652
0.000259823
0.000300304
0.000354449
0.000420832
0.000440009
0.000372777
0.000314221
0.000269709
0.000233607
0.000201441
0.000171824
0.000146096
0.000121265
9.52565e-05
3.27258e-06
4.70611e-06
5.77343e-06
6.58076e-06
7.18719e-06
7.64835e-06
8.04591e-06
8.52018e-06
9.16519e-06
1.03751e-05
1.07299e-05
9.28119e-06
8.33742e-06
7.65751e-06
7.10674e-06
6.56346e-06
5.95109e-06
5.2115e-06
4.27442e-06
3.01227e-06
4.66728e-06
8.85841e-06
1.12438e-05
1.30199e-05
1.44358e-05
1.56853e-05
1.70152e-05
1.89471e-05
2.14938e-05
2.50619e-05
2.60914e-05
2.24083e-05
1.85897e-05
1.60849e-05
1.4585e-05
1.33387e-05
1.19828e-05
1.03085e-05
8.07109e-06
4.2354e-06
6.44097e-06
1.08578e-05
1.34511e-05
1.55188e-05
1.71803e-05
1.84131e-05
1.953e-05
2.11039e-05
2.34915e-05
3.21707e-05
3.45914e-05