/*--------------------------------*- C++ -*----------------------------------*\
| =========                 |                                                 |
| \\      /  F ield         | OpenFOAM: The Open Source CFD Toolbox           |
|  \\    /   O peration     | Version:  1.7.1                                 |
|   \\  /    A nd           | Web:      www.OpenFOAM.com                      |
|    \\/     M anipulation  |                                                 |
\*---------------------------------------------------------------------------*/
FoamFile
{
    version     2.0;
    format      ascii;
    class       surfaceScalarField;
    location    "1400";
    object      phi;
}
// * * * * * * * * * * * * * * * * * * * * * * * * * * * * * * * * * * * * * //

dimensions      [1 0 -1 0 0 0 0];

internalField   nonuniform List<scalar> 
11200
(
0.000114685
-0.000229383
0.000114686
0.000208518
-0.000324522
0.000230688
0.000291599
-0.000367292
0.000284217
0.000260354
-0.00024962
0.000280865
0.000171067
-0.000185008
0.000274292
0.000191255
-0.000287323
0.000267144
0.000342206
-0.00042138
0.000270454
0.000457763
-0.000396075
0.000280544
0.000454795
-0.000297595
0.000300578
0.000323454
-0.000193591
0.000324933
0.000161868
-0.000181504
0.000343088
4.15147e-05
-0.000230429
0.000350787
-1.60052e-05
-0.000283945
0.000341476
-2.83228e-05
-0.000311818
0.000324149
-5.44831e-05
-0.000283979
0.000310146
-0.000104225
-0.000248183
0.000297926
-8.45069e-05
-0.000313886
0.000294173
-1.10512e-05
-0.000378286
0.000304837
-5.42029e-06
-0.000267981
0.000262343
-0.000176305
0.00017087
-0.00047485
0.000720322
-0.000474856
-0.000853754
0.0002857
-0.000231322
-0.000754541
-0.000374213
-9.2282e-05
-0.000600209
-0.000305266
-9.86802e-05
-0.000446018
-0.000247129
-9.20657e-05
-0.000298128
-0.000370124
-6.50747e-05
-0.000240199
-0.000437457
-4.18294e-05
-0.000182842
-0.000418825
-3.45856e-05
-9.1246e-05
-0.00035767
-3.15063e-05
4.55118e-05
-0.000296683
-3.36577e-05
0.000177537
-0.000281576
-3.19464e-05
0.00026774
-0.000308433
-1.21925e-05
0.000322909
-0.000335673
-3.43232e-06
0.000369652
-0.000346132
-1.24209e-05
0.000424133
-0.00032358
-1.48707e-05
0.000479856
-0.000279357
-2.4544e-05
0.000645947
-0.000444341
-3.56274e-05
0.000673368
-0.000354202
-5.14969e-05
0.000295236
0.000339132
-0.000228985
0.000610383
-0.000491453
0.000628299
-0.000536313
0.000628287
8.05102e-05
0.000267354
0.000566125
-0.000931521
0.000494094
0.000143732
-0.00161324
0.000560301
-0.000183841
-0.00175787
0.000109113
-0.00021161
-0.00138353
-0.000597603
-0.000146848
-0.00116039
-0.000481282
-0.000179293
-0.000940979
-0.000421438
-0.000216789
-0.000593714
-0.000447392
-0.00025753
-0.000127307
-0.000437072
-0.000326007
0.000333648
-0.000383821
-0.000358704
0.000673029
-0.000326538
-0.000321271
0.000918838
-0.000302153
-0.000279326
0.0012438
-0.000403728
-0.000267356
0.00150024
-0.000352116
-0.000227909
0.0011944
0.000279962
-0.000253478
0.000313693
0.000627635
-0.000191265
-0.000703319
0.000464509
0.000198324
-0.00100079
0.00013054
0.000506062
-0.000955569
0.000565144
0.00191322
-0.00436275
0.00191322
0.00274382
-0.00228893
0.00172566
0.0025133
-0.00058791
0.0013125
0.00161382
0.000500867
0.000958898
0.000312419
0.000663253
0.000747285
-0.000843209
0.000203039
0.000354997
-0.00131571
4.11239e-05
-4.98965e-05
-0.00121514
-0.000285262
-0.000236745
-0.000808688
-0.000442433
-0.000411396
-0.00022642
-0.000393576
-0.000625756
0.000383103
-0.000271505
-0.000721836
0.000772492
-0.000105436
-0.000610493
0.000781662
0.000107916
-0.000419245
0.000248815
0.00033197
-0.000202856
-0.000877789
0.000472994
0.000301509
-0.00208627
0.000813351
0.000675112
-0.00286081
0.000486218
0.000915939
-0.00294134
-0.000755514
0.00130053
-0.00194236
-0.00257628
0.00170782
-0.00474037
0.00184244
0.00124262
-0.00684799
0.00124262
0.00213357
-0.00471493
0.00153506
0.00269481
-0.00282889
0.00167973
0.00291507
-0.00139351
0.0016741
0.00261661
-0.000609152
0.00157083
0.00161836
-0.00016832
0.00136959
0.00056996
3.72487e-05
0.00105227
-0.000194064
-0.000177307
0.000656072
-0.000515556
-0.000347151
0.000226217
-0.000471846
-0.000307069
-0.000130212
-0.000358061
-0.000257022
-0.000128267
-0.00059082
-0.000114682
0.000242003
-0.00124003
5.73666e-05
0.000699745
-0.00209568
8.85398e-05
0.00109906
-0.00281978
-0.000199508
0.00139656
-0.00292717
-0.000658253
0.00157897
-0.00261385
-0.00148839
0.00166128
-0.00202962
-0.00297599
0.00163624
-0.00117994
-0.00489751
0.00147154
-0.0071007
0.0011804
0.000612521
-0.00807303
0.000612521
0.000774118
-0.00603827
0.00116175
0.000722594
-0.00429383
0.00151646
0.000642965
-0.00306609
0.00175221
0.000456417
-0.00228873
0.00186612
0.000263558
-0.00179965
0.00182418
0.00013466
-0.00152312
0.00168927
-6.78576e-05
-0.00143939
0.0014646
-0.000263649
-0.00135278
0.00120143
-0.000345232
-0.00129687
0.00107139
-0.000294193
-0.00147395
0.00116589
-0.000262257
-0.00154636
0.00139974
-0.000204151
-0.00159997
0.00159923
-0.000176282
-0.00171459
0.00177525
-0.000296535
-0.00198528
0.00190602
-0.000449778
-0.00244003
0.00193502
-0.000530223
-0.00320041
0.00179246
-0.000620689
-0.00441914
0.00153361
-0.00052859
-0.00615693
0.00116732
-0.00824418
0.00061489
6.62919e-05
-0.0082056
6.62894e-05
-0.00033934
-0.00649631
0.000863677
-0.000805581
-0.00509217
0.00126459
-0.00108433
-0.00425815
0.00147081
-0.00116672
-0.00376751
0.00156118
-0.00103825
-0.00349201
0.00156388
-0.000743043
-0.00333
0.00151168
-0.000417049
-0.00322112
0.00145574
-0.000151506
-0.00311294
0.00149461
1.9684e-05
-0.00306711
0.00159905
0.000276532
-0.0032736
0.00154281
0.000653188
-0.00339044
0.00146743
0.00104349
-0.00346599
0.0014757
0.00134133
-0.00354564
0.00153322
0.00144902
-0.0036773
0.00158433
0.00134507
-0.00392089
0.0015848
0.00103191
-0.00438669
0.00149944
0.0005205
-0.00520446
0.00129674
4.46864e-05
-0.00659001
0.000908904
-0.00832526
0.000125777
-0.000445319
-0.00731496
-0.000445322
-0.00131092
-0.00603029
0.000399577
-0.00197962
-0.00514001
0.000716547
-0.00231552
-0.00471762
0.000795367
-0.00230629
-0.0045145
0.000737766
-0.00199601
-0.00443953
0.000637239
-0.00145579
-0.00440444
0.000534201
-0.000794274
-0.00435199
0.000469353
-0.000167514
-0.00425722
0.000517513
0.000228364
-0.00418692
0.000723925
0.000642359
-0.00432667
0.000639063
0.00125093
-0.00445822
0.000459202
0.00188062
-0.00453623
0.000440551
0.00238256
-0.00456721
0.00051963
0.00265038
-0.00458343
0.000638306
0.00261719
-0.00464055
0.000752843
0.00223381
-0.00482464
0.000821344
0.00150385
-0.0052316
0.000757103
0.000553341
-0.0061055
0.000465991
-0.00739345
-0.000378464
-0.00117525
-0.00496445
-0.00117525
-0.00242045
-0.0042078
-0.000577278
-0.0032103
-0.00386872
-0.000481442
-0.00353168
-0.00384865
-0.000547607
-0.00342327
-0.00393302
-0.000689903
-0.00295375
-0.00405982
-0.000849245
-0.00219642
-0.00418346
-0.000978325
-0.00125216
-0.00426184
-0.00103442
-0.000312541
-0.00425665
-0.000940211
0.000298688
-0.00420794
-0.000590223
0.000910692
-0.00426956
-0.000669127
0.00178353
-0.00434884
-0.000982236
0.00266344
-0.00434661
-0.00106954
0.0033684
-0.00426192
-0.00101026
0.00379061
-0.0041337
-0.000871956
0.00385121
-0.00400161
-0.000699547
0.00347819
-0.00391
-0.000541631
0.00262433
-0.00392159
-0.00045614
0.00129237
-0.0042476
-0.000525934
-0.00500165
-0.00109943
-0.00248223
-0.00248223
-0.00405043
-0.0026396
-0.00482263
-0.00309654
-0.00507502
-0.00359627
-0.00488671
-0.00412135
-0.00430964
-0.00463691
-0.00337945
-0.00511367
-0.00214772
-0.00549361
-0.000755342
-0.00564905
0.000295266
-0.00525857
0.00134813
-0.00532244
0.00266078
-0.0056615
0.00383098
-0.00551683
0.0047149
-0.00514586
0.00524969
-0.00466851
0.00539188
-0.00414382
0.00508487
-0.003603
0.00424467
-0.0030814
0.00259294
-0.00259589
-0.0024087
0.000230684
-0.00032452
0.000208519
0.00038406
-0.000306753
0.000384065
0.000464447
-0.000259436
0.000463266
0.000407547
-0.000135719
0.00047348
0.000291973
-7.32242e-05
0.000463081
0.000302318
-0.000207456
0.000464263
0.00043816
-0.000344355
0.000478991
0.000535943
-0.000315737
0.000498519
0.000506906
-0.000197612
0.000527234
0.000355753
-9.77435e-05
0.000573822
0.000171251
-8.25666e-05
0.000610146
2.44901e-05
-0.000124528
0.000622071
-5.94273e-05
-0.000184438
0.000609834
-9.3291e-05
-0.000226468
0.000584487
-0.000132557
-0.000212115
0.000561532
-0.000198746
-0.000182696
0.000546809
-0.000209875
-0.000240212
0.000545517
-0.000136313
-0.000305671
0.00053695
-7.02028e-05
-0.00025571
0.00045194
-0.000187514
0.00028817
-0.00023132
0.000285697
-0.000853758
-0.000367357
-3.46829e-05
-0.00036736
-0.000280269
-0.000339364
-9.9435e-05
-0.00021645
-0.000246858
-5.13599e-05
-0.000128588
-0.000238674
-1.44778e-05
-3.07249e-05
-0.000412049
4.16688e-05
-1.05041e-05
-0.000485225
7.88444e-05
-3.33314e-06
-0.00046409
0.000106619
3.86114e-05
-0.000392829
0.000121782
0.000103049
-0.000319244
0.000123415
0.00015392
-0.00028865
0.000123273
0.000170505
-0.000293701
0.000140403
0.000158702
-0.000315653
0.000139593
0.000161575
-0.000360215
0.000118463
0.000179403
-0.000344592
9.97865e-05
0.000171412
-0.00026618
6.69335e-05
0.000208714
-0.000343845
3.07099e-05
0.00026616
-0.000377117
-3.74897e-05
0.000135472
5.02558e-06
-0.000359041
0.000289676
-0.000833179
0.000566134
0.000267349
8.0491e-05
0.000303074
0.000491459
0.000303058
-0.000420899
0.000563964
-3.56182e-05
-0.00094686
0.000395253
-0.000299989
-0.00103411
-0.000102679
-0.000260354
-0.00076081
-0.000710897
-0.000121283
-0.000679898
-0.000612476
-0.000132935
-0.000578381
-0.000615752
-0.000166623
-0.00035511
-0.000660469
-0.00021314
-6.34044e-05
-0.000634045
-0.000302895
0.000212986
-0.000563989
-0.000359742
0.000417272
-0.00047541
-0.000343839
0.000526394
-0.00038668
-0.000317416
0.000684027
-0.000486625
-0.000298572
0.00085048
-0.000455498
-0.000283452
0.000594427
0.000101178
-0.00036479
-9.08551e-05
0.000479562
-0.00032939
-0.000801892
0.000534437
-2.18032e-06
-0.00088723
0.000326043
0.000270404
-4.82149e-05
1.58022e-05
0.00172566
-0.00228893
0.00274382
0.00248011
-0.00101746
0.00248011
0.00238131
3.67319e-05
0.00193851
0.0016592
0.000688905
0.00138735
0.000718968
0.000629841
0.000955023
-0.0002359
0.000146441
0.000452543
-0.000735484
-0.000180902
1.81238e-05
-0.000733173
-0.000658794
-0.000195996
-0.000481792
-0.000915003
-0.000408225
-0.000166636
-0.000889192
-0.000685748
0.000166111
-0.000827485
-0.000791076
0.000420511
-0.000656145
-0.000684151
0.000331232
-0.000186641
-0.000530009
-0.000265384
0.000180104
-0.000272972
-0.00122094
0.000457059
0.000344525
-0.00213002
0.000814548
0.000870843
-0.00277694
0.000707084
0.00133534
-0.00274985
-0.00011604
0.0019239
-0.00185023
-0.0013433
0.00247753
-0.0027727
0.0027167
0.00153505
-0.00471493
0.00213357
0.0026439
-0.00323515
0.0026439
0.00331275
-0.00174879
0.00279639
0.00353139
-0.000496078
0.00264043
0.00317506
0.000213563
0.00234342
0.00220915
0.000567392
0.00191453
0.00117576
0.000544837
0.00135994
0.000298661
0.000129842
0.000744546
-0.000191473
-0.000331674
0.000133034
-0.000316844
-0.000446984
-0.000447037
-0.000524916
-0.000263016
-0.000484656
-0.00106698
7.39666e-05
5.39629e-05
-0.0018215
0.000510698
0.00075693
-0.00272141
0.000775286
0.00140379
-0.00345906
0.000658559
0.00193268
-0.0036585
0.000249302
0.00234362
-0.00334286
-0.000557265
0.00260998
-0.00262433
-0.00192783
0.00272949
-0.00150913
-0.00351705
0.0025301
-0.00508313
0.00198171
0.00116175
-0.00603827
0.000774118
0.00181048
-0.0045326
0.00181048
0.00209708
-0.00292811
0.00240918
0.00215953
-0.00149369
0.00268737
0.00199083
-0.000462624
0.00271101
0.00164233
0.000217698
0.00252237
0.00113006
0.000536777
0.00220959
0.000451193
0.000471628
0.00180169
-0.000137647
0.000237157
0.00122145
-0.000430308
0.00013845
0.000778622
-0.000695519
0.000232887
0.000935204
-0.00112787
0.000418872
0.00148719
-0.00150658
0.000546119
0.00194252
-0.00180166
0.000553301
0.0022923
-0.00202758
0.000183068
0.00260743
-0.00211188
-0.000516498
0.00278512
-0.00201778
-0.00158863
0.00272971
-0.0017458
-0.0030803
0.0024141
-0.00112611
-0.0047614
0.00179199
-0.00632363
0.000729279
0.000863677
-0.00649631
-0.000339342
0.00106708
-0.00493939
0.00106708
0.000945397
-0.00343344
0.0018916
0.000758119
-0.00216577
0.00233016
0.000583928
-0.00127405
0.0025468
0.000491922
-0.000647132
0.00252072
0.000432071
-0.000268469
0.00237677
0.000273114
-0.00011288
0.0021992
1.04436e-05
-9.81904e-05
0.00209263
-0.000187423
-0.000117909
0.00205328
-0.000289198
-0.000196086
0.00207356
-0.000361338
-0.000183957
0.00214239
-0.000394137
-0.000225552
0.00228017
-0.000375785
-0.000380326
0.00244849
-0.000435845
-0.000762537
0.00259
-0.000603456
-0.00138018
0.00261609
-0.000804152
-0.00228252
0.00239403
-0.000972368
-0.0035639
0.00194856
-0.000817211
-0.00512528
0.00111763
-0.0067067
-0.000308357
0.000399579
-0.00603028
-0.00131092
0.000211506
-0.00456324
0.000211503
-0.000255862
-0.00329714
0.00104762
-0.000544628
-0.0024827
0.00140107
-0.000625665
-0.00194794
0.00149269
-0.000532744
-0.00159447
0.00149165
-0.000330466
-0.0013427
0.00140615
-0.000114827
-0.00116747
0.0013083
4.70356e-05
-0.00105376
0.00131122
0.000160051
-0.000958807
0.00145181
0.000255122
-0.00104752
0.00139542
0.00042961
-0.00117709
0.00127784
0.000634003
-0.00129235
0.00130296
0.000817223
-0.00145957
0.00141565
0.000877317
-0.00170377
0.00151944
0.000764903
-0.0020546
0.00153967
0.000432769
-0.00259347
0.00146442
-9.31943e-05
-0.00340608
0.00112525
-0.000334944
-0.00470382
0.000286289
-0.00617575
-0.00124436
-0.000577276
-0.0042078
-0.00242046
-0.00129766
-0.00312247
-0.00129767
-0.00190054
-0.00246033
-0.000715381
-0.00220183
-0.00217266
-0.000556363
-0.00216075
-0.00201566
-0.000663277
-0.00182326
-0.00193111
-0.000850108
-0.00129056
-0.00187851
-0.000975229
-0.000657248
-0.00182621
-0.001009
-8.11437e-05
-0.00174946
-0.000820629
0.000269076
-0.00159538
-0.000303882
0.000576508
-0.00162347
-0.000400619
0.00110781
-0.00179614
-0.000894494
0.00168559
-0.00187462
-0.00106506
0.00217195
-0.00192804
-0.00102817
0.00246466
-0.00198519
-0.000883253
0.00246189
-0.00207539
-0.000675999
0.00210815
-0.00223814
-0.000543217
0.00144628
-0.00253133
-0.000669029
0.000642497
-0.00320052
-0.00122545
-0.00429078
-0.0023419
-0.0026396
-0.00405044
-0.00420084
-0.00420084
-0.00498468
-0.00477306
-0.00526346
-0.00549018
-0.00512523
-0.00627526
-0.00462458
-0.00706872
-0.00379249
-0.00782431
-0.00266482
-0.00844752
-0.00130579
-0.00875758
0.000229372
-0.00838915
0.00172936
-0.00844593
0.00305259
-0.0087809
0.00414987
-0.00848875
0.00495392
-0.00787797
0.00542298
-0.00712277
0.00552207
-0.00631831
0.00519377
-0.00551287
0.00434824
-0.00476722
0.00271368
-0.00416185
-0.00398581
0.000284213
-0.000367288
0.0002916
0.000463261
-0.000259432
0.000464451
0.000540053
-0.000153591
0.000540059
0.000479682
-1.3203e-05
0.000547038
0.000380946
9.30427e-06
0.000552499
0.000410229
-0.000173445
0.00060843
0.000547676
-0.000338699
0.000680269
0.000636576
-0.00032794
0.000737581
0.000587368
-0.000214354
0.000790803
0.000407898
-0.000109437
0.000862723
0.000187621
-8.14729e-05
0.000911887
9.56512e-06
-0.000108224
0.000908345
-0.000100036
-0.000151651
0.000871087
-0.000147075
-0.000185376
0.000816906
-0.00018277
-0.000164585
0.000761813
-0.000240198
-0.00011421
0.000718441
-0.000263169
-0.00012939
0.000697872
-0.000204247
-0.000192224
0.00067025
-0.000125954
-0.000202313
0.000575956
-0.000251674
0.000413889
-9.22844e-05
-0.000374208
-0.000754544
-9.94364e-05
-0.000339361
-0.000280273
-3.25574e-05
-0.000287344
-3.2559e-05
3.03325e-05
-0.000185063
5.76045e-05
0.000137147
-0.000241429
0.000129439
0.000233051
-0.000430398
0.000202734
0.000229394
-0.000514225
0.000258053
0.000203244
-0.000514798
0.000319655
0.00018061
-0.000440458
0.000370541
0.000165571
-0.000359153
0.000388183
0.000137184
-0.000314893
0.000385089
8.04042e-05
-0.000294274
0.000383241
1.21254e-05
-0.000299574
0.000355801
-2.00401e-05
-0.000343651
0.000308912
-6.56966e-07
-0.000341109
0.000256934
7.64595e-06
-0.000239746
0.000184165
2.41527e-05
-0.000226308
0.00011112
8.47657e-05
-0.000323399
3.30761e-05
8.16081e-05
-0.000320924
-0.000237269
-0.000324423
-0.000678821
0.000143734
0.000494093
-0.000931536
-3.56116e-05
0.000563963
-0.000420915
-0.000415276
0.000471991
-0.000415287
-0.000671843
0.000186481
-0.000414968
-0.000596105
-0.000358348
-0.000219164
-0.000351682
-0.000776901
-1.91843e-05
-0.000317265
-0.000681708
1.5318e-07
-0.000275177
-0.000721605
-1.87904e-06
-0.000156146
-0.000745838
-2.67654e-05
-9.92131e-06
-0.00069511
-0.000113141
0.000124549
-0.00061888
-0.000190209
0.00022878
-0.000530128
-0.000212205
0.000262794
-0.000421544
-0.000229454
0.000324329
-0.000467712
-0.00023604
0.000495426
-0.000538142
-0.000257511
0.000433041
-0.000142125
-0.000400029
0.000106531
0.000277022
-0.000506212
-0.00025945
0.000479999
-0.000439596
-0.000337234
0.000469152
-0.000441882
0.000329004
-0.000974852
0.0013125
-0.00058791
0.00251329
0.00193852
3.67317e-05
0.0023813
0.00190238
0.000544255
0.00190238
0.00137347
0.000758519
0.00134424
0.000650185
0.0004638
0.000856186
-6.05326e-05
-1.45027e-05
0.000400876
-0.0004291
-0.000380453
8.54534e-05
-0.000433476
-0.000863098
-5.01056e-05
-0.000288585
-0.00104653
-0.000252403
-0.00011868
-0.00101572
-0.000535022
4.14359e-05
-0.000909567
-0.000660492
0.000203986
-0.000819223
-0.000557598
0.000144111
-0.000432259
-0.000459417
-0.000336409
1.16758e-05
-0.000271846
-0.00107444
0.000331668
0.000212752
-0.00178653
0.000684345
0.000756497
-0.00228362
0.000829522
0.00127994
-0.00223489
0.000477198
0.00187796
-0.00149171
-0.000167578
0.00237107
-0.000922195
0.00247617
0.00167973
-0.00282889
0.00269482
0.00279639
-0.00174879
0.00331276
0.00344781
-0.000758595
0.00344781
0.00361432
3.51697e-05
0.00319725
0.00320269
0.000497738
0.00272109
0.00230218
0.000695227
0.00210531
0.0013236
0.000499851
0.00145824
0.00044239
-6.41587e-05
0.000826825
-4.47235e-05
-0.000657398
0.000231029
-0.000240626
-0.00089544
-0.000371404
-0.000529777
-0.000657096
-0.000447968
-0.00114318
-0.000210559
5.87122e-05
-0.00194044
0.000372143
0.000749792
-0.00282218
0.000832463
0.00146474
-0.00355126
0.000860591
0.00213281
-0.00384334
0.000591952
0.00272807
-0.00358987
9.57182e-06
0.00317644
-0.00286732
-0.000906647
0.00339078
-0.00169637
-0.00200943
0.003201
-0.00316415
0.00252729
0.00151646
-0.00429383
0.000722594
0.00240918
-0.00292811
0.00209709
0.00291102
-0.00176229
0.00291103
0.00306474
-0.000644971
0.0032138
0.00289235
0.000212787
0.00316834
0.00244886
0.000766386
0.00289469
0.00177369
0.000866544
0.00251806
0.000904912
0.000610949
0.00199536
9.80935e-05
0.00010607
0.00126481
-0.000470398
-0.000160464
0.000612145
-0.000966188
2.15683e-05
0.000752335
-0.0016452
0.000478559
0.00147708
-0.00227638
0.000812996
0.00213284
-0.00273663
0.00101072
0.00257429
-0.00307289
0.000854442
0.00294983
-0.00315506
0.000231858
0.00322737
-0.00294321
-0.000718903
0.00324633
-0.00241298
-0.0019299
0.00290712
-0.00150577
-0.00317866
0.00205401
-0.00457669
0.000636043
0.00126459
-0.00509217
-0.000805584
0.0018916
-0.00343343
0.000945395
0.00211388
-0.00220685
0.00211388
0.00209157
-0.00107229
0.00277979
0.00189368
-6.33882e-05
0.00302085
0.00164739
0.00054798
0.00298541
0.00131011
0.000783821
0.00279677
0.000858516
0.000722409
0.00253933
0.000247037
0.000535439
0.00227474
-0.00030664
0.000404957
0.00204154
-0.000782742
0.000441992
0.00212924
-0.00116497
0.00061569
0.00238749
-0.001487
0.000778706
0.00263649
-0.00172618
0.000819415
0.00287896
-0.00190616
0.00056163
0.00306279
-0.00205629
-0.000104059
0.00310214
-0.00206524
-0.0011612
0.00284528
-0.00185196
-0.00236149
0.00216688
-0.00123735
-0.00365533
0.000979693
-0.00531878
-0.000803608
0.000716548
-0.00514001
-0.00197963
0.00104762
-0.00329714
-0.000255867
0.00098195
-0.00207551
0.000981946
0.000816663
-0.0011509
0.00164497
0.000731662
-0.000483264
0.00199756
0.00072336
-7.48706e-05
0.0021228
0.000649939
0.000217816
0.00204557
0.000500407
0.000275231
0.001905
0.000322752
0.000168263
0.00185605
4.10109e-06
0.000234637
0.00194078
-0.000293323
0.000201306
0.00193353
-0.000440426
0.000155273
0.00188536
-0.000569913
0.000262404
0.00194874
-0.000617582
0.000189267
0.00209347
-0.000612144
-0.000101128
0.00217676
-0.000700426
-0.000539891
0.00206378
-0.000879509
-0.00124647
0.00172878
-0.000974603
-0.00220545
0.0010643
-0.000678153
-0.00346945
-0.00019604
-0.00530691
-0.00193438
-0.000481442
-0.00386872
-0.00321031
-0.000715378
-0.00246033
-0.00190054
-0.000950441
-0.00160539
-0.000950446
-0.00101863
-0.00115633
-0.000482755
-0.000922394
-0.000853875
-0.000388912
-0.000652089
-0.000630531
-0.000564764
-0.000260498
-0.000443366
-0.000705649
7.65123e-05
-0.000300502
-0.000770288
0.000223498
-0.000157494
-0.000641866
0.000230385
0.000149211
-0.000225349
0.000137148
0.000155775
-0.000261857
0.000219467
-0.00014818
-0.000673366
0.000523349
-0.000307796
-0.000798752
0.000886743
-0.000464752
-0.000737554
0.0011369
-0.000661587
-0.000572955
0.00120558
-0.000900004
-0.000384579
0.00110257
-0.00121665
-0.000470039
0.000825503
-0.00168057
-0.00091684
0.000529305
-0.00254864
-0.00185008
-0.00396635
-0.00315316
-0.00309654
-0.00482264
-0.00477305
-0.00498468
-0.00557576
-0.00557577
-0.0058517
-0.00637061
-0.00570589
-0.00727498
-0.00520399
-0.00820118
-0.00436561
-0.0091061
-0.00321084
-0.00990284
-0.00174723
-0.0103787
0.00012901
-0.0101162
0.00199548
-0.0101567
0.00347287
-0.0104065
0.00463024
-0.00995394
0.00546375
-0.00917625
0.00595461
-0.00827525
0.00607642
-0.00734015
0.00576299
-0.00641611
0.00490825
-0.00559306
0.0031676
-0.00496986
-0.00478457
0.000280863
-0.000249617
0.000260354
0.000473474
-0.000135715
0.000407549
0.000547031
-1.32001e-05
0.000479687
0.000511984
7.00776e-05
0.000511991
0.00047474
7.54448e-06
0.000582183
0.00054364
-0.000187615
0.000727152
0.000685312
-0.000350119
0.000888742
0.000770143
-0.000372206
0.00102498
0.000701759
-0.000277864
0.00113707
0.000475139
-0.000164176
0.00125352
0.000191341
-0.000116301
0.00131198
-2.95799e-05
-0.000118698
0.00124796
-0.000165023
-0.000136074
0.00114261
-0.000222662
-0.000146465
0.00102101
-0.000244473
-0.000118107
0.000901731
-0.000274163
-4.34507e-05
0.000791571
-0.000291835
8.04116e-06
0.000707485
-0.000245364
-1.7005e-05
0.000640769
-0.000157373
-5.21009e-05
0.000540052
-0.000129616
0.000386122
-9.86828e-05
-0.000305257
-0.000600214
-5.13624e-05
-0.000246852
-0.000216456
5.76049e-05
-0.000185061
3.03286e-05
0.000181171
-0.000177065
0.000181168
0.000340931
-0.000321551
0.000298781
0.000452845
-0.000476994
0.000380222
0.000465258
-0.000561721
0.000457277
0.000423343
-0.000575118
0.000564516
0.000337868
-0.000495543
0.000673721
0.000235437
-0.000401474
0.000727931
0.000114515
-0.000334854
0.000724576
-1.77878e-05
-0.000283164
0.000680018
-0.000133143
-0.000267184
0.000602272
-0.000193177
-0.00028657
0.000509057
-0.000168208
-0.000306297
0.00042016
-0.00011041
-0.000228971
0.000311886
-3.95333e-05
-0.000143577
0.000191853
5.32708e-05
-0.000143508
6.67669e-05
9.91791e-05
-0.000174898
-0.000160386
-0.000203635
-0.000505626
-0.000183837
0.000560297
-0.00161325
-0.000299982
0.00039525
-0.000946869
-0.000414958
0.000186479
-0.000671852
-0.000412592
-0.000181797
-0.0004126
-0.000213818
-0.000649709
-8.97667e-05
-4.62532e-05
-0.000785182
0.00012146
-1.73056e-05
-0.000751619
0.000161129
-8.39868e-06
-0.000807219
0.000221345
1.47972e-05
-0.000790264
0.000244788
3.11569e-05
-0.000716526
0.000185576
3.70803e-05
-0.000628066
9.70977e-05
5.02433e-05
-0.000539936
3.14151e-05
4.66314e-05
-0.000454049
-3.89716e-05
5.53273e-05
-0.000429592
-0.000101711
0.000190286
-0.000567541
-0.00013122
0.000287472
-0.000416625
-0.00030956
0.000204741
-8.89435e-06
-0.000558174
9.35784e-05
0.000258528
-0.000730475
5.06743e-05
0.000418737
-0.000992617
0.000559814
-0.00168763
0.000958902
0.000500863
0.00161381
0.00138736
0.000688902
0.00165919
0.00134425
0.000758516
0.00137346
0.000968631
0.000569458
0.000968626
0.000443608
0.000153329
0.000578193
-1.13028e-05
-0.000209353
0.000279973
-0.000219101
-0.000624739
0.000166393
-0.000218995
-0.000994825
0.000137416
-0.000161324
-0.0011007
3.78705e-07
-9.96443e-05
-0.00106334
-0.000249868
-5.09934e-05
-0.000947214
-0.000389982
2.89623e-05
-0.000853603
-0.000323879
2.26348e-05
-0.000643641
-0.000263494
-0.000266766
-0.000193509
-0.000218531
-0.000780553
0.000121673
3.73261e-05
-0.00132858
0.000427412
0.0004605
-0.00168838
0.000718378
0.000912496
-0.00167739
0.000784049
0.00134146
-0.00114431
0.00061804
0.00163869
0.00032462
0.00156705
0.0016741
-0.00139351
0.00291508
0.00264043
-0.000496079
0.00353139
0.00319724
3.51684e-05
0.00361433
0.00327629
0.000411334
0.0032763
0.00283633
0.000615267
0.0026991
0.00206667
0.000616517
0.00204911
0.00120583
0.00025726
0.00143709
0.000456344
-0.00034245
0.000923949
1.98377e-05
-0.000885285
0.00045214
-0.000206351
-0.00115415
-5.43921e-05
-0.00049406
-0.000948582
-0.000158883
-0.00102846
-0.000499134
0.000238654
-0.00176921
7.86307e-05
0.000768277
-0.00255625
0.000648799
0.00140948
-0.00324037
0.000866367
0.00207222
-0.00356879
0.000754981
0.0027289
-0.00341572
0.00046733
0.0032744
-0.00278677
-2.80004e-05
0.00357386
-0.00174902
-0.00066235
0.00344362
-0.00167148
0.00277437
0.00175221
-0.00306609
0.000642964
0.00268737
-0.00149369
0.00215953
0.00321379
-0.000644972
0.00306474
0.00340683
2.52482e-05
0.00340684
0.00324482
0.00060897
0.00333664
0.00281875
0.000864946
0.00307234
0.00211245
0.000791083
0.00269053
0.00122727
0.000414621
0.00212347
0.000350372
-0.000167902
0.00142432
-0.000429389
-0.00054135
0.00077911
-0.00116719
-0.000313291
0.00085485
-0.00193317
0.000205073
0.00153885
-0.00266904
0.000697805
0.00224953
-0.00318002
0.00099958
0.00273449
-0.00350583
0.00103557
0.00310643
-0.00360038
0.000695668
0.00338122
-0.00333621
1.01996e-05
0.00343929
-0.00274943
-0.000764612
0.00305695
-0.00176181
-0.00169549
0.00209952
-0.00333154
0.000534292
0.00147081
-0.00425815
-0.00108433
0.00233016
-0.00216577
0.000758117
0.00277979
-0.00107229
0.00209157
0.0028116
-3.83722e-05
0.0028116
0.00269565
0.000592709
0.00315306
0.00241755
0.000940664
0.00318779
0.00198682
0.000978321
0.00304026
0.00136234
0.000790365
0.00278806
0.000507753
0.000519852
0.00244158
-0.000376024
0.000323186
0.00206079
-0.00117306
0.000419186
0.0021938
-0.00182701
0.000661266
0.00258525
-0.00229433
0.000923621
0.00287799
-0.00262729
0.00109811
0.00311338
-0.00282686
0.00104182
0.00325612
-0.00288685
0.000633789
0.003224
-0.00280353
-0.000103154
0.0028753
-0.00232847
-0.00120036
0.00212756
-0.00145185
-0.00235911
0.000766694
-0.00448464
-0.00110236
0.000795366
-0.00471762
-0.00231552
0.00140107
-0.0024827
-0.000544634
0.00164497
-0.0011509
0.000816658
0.00174684
-0.00024212
0.00174684
0.0016904
0.000450146
0.00219656
0.00156493
0.000857275
0.00233166
0.00135886
0.000950599
0.00227935
0.00103832
0.000873671
0.00214224
0.000592355
0.000777963
0.0020439
-9.43659e-05
0.000888189
0.0020625
-0.000759813
0.00092546
0.0020927
-0.00116611
0.000839869
0.00211305
-0.00144941
0.00094603
0.00220963
-0.00161511
0.00101747
0.0023398
-0.00170169
0.000912646
0.00239249
-0.00172304
0.000455864
0.00226305
-0.00161404
-0.000292274
0.0018089
-0.00136657
-0.00126087
0.000877348
-0.000767959
-0.00264084
-0.000512927
-0.00489442
-0.00229256
-0.000547606
-0.00384864
-0.00353168
-0.000556361
-0.00217266
-0.00220184
-0.000482752
-0.00115633
-0.00101864
-0.000308353
-0.000590927
-0.000308358
-3.97104e-05
-0.000106842
-0.000100577
0.000186671
0.000160939
-9.48193e-05
0.000373646
0.000301207
-0.000243243
0.000442497
0.00041642
-0.000381897
0.000355076
0.000589015
-0.000365505
0.000112854
0.00101119
-0.000106134
-0.000204176
0.00106675
-8.61274e-05
-0.000348555
0.000634728
-0.000323853
-0.000300119
0.000447214
-0.00034838
-0.000116003
0.00031935
-0.00022356
0.000129839
0.000168249
-7.44084e-05
0.000411105
-0.000126147
-8.38409e-05
0.000588231
-0.000636286
-0.000303161
0.000648925
-0.0012244
-0.00101401
0.000593542
-0.00225872
-0.00217682
-0.00395427
-0.00349978
-0.00359627
-0.00507503
-0.00549018
-0.00526346
-0.0063706
-0.0058517
-0.00666609
-0.00666609
-0.00648798
-0.00755997
-0.00595381
-0.00857445
-0.00510503
-0.00965371
-0.0039034
-0.0106881
-0.00226936
-0.0114238
2.00121e-05
-0.0113944
0.00235263
-0.0114225
0.00404013
-0.0114593
0.00527771
-0.0107443
0.0061487
-0.00972791
0.00669694
-0.00865527
0.00687069
-0.00764006
0.00655116
-0.00673289
0.00562723
-0.00589355
0.0036735
-0.00527485
-0.00506535
0.000274291
-0.000185006
0.000171067
0.000463077
-7.3221e-05
0.000291974
0.000552493
9.3059e-06
0.00038095
0.000582176
7.54524e-06
0.000474746
0.000627268
-9.0194e-05
0.000627277
0.000735537
-0.00023473
0.000853622
0.000878403
-0.000368021
0.00111392
0.000953941
-0.000417013
0.00136649
0.000860472
-0.00036525
0.00159581
0.000551792
-0.000244935
0.00180714
0.000151882
-0.000171399
0.00188329
-0.000130297
-0.000142564
0.00167271
-0.000290464
-0.000137612
0.00144039
-0.00035262
-0.000121738
0.00120491
-0.000361285
-7.87297e-05
0.000989123
-0.000359254
-7.34309e-06
0.000796872
-0.000348999
5.71767e-05
0.000640038
-0.000302569
7.36711e-05
0.000520652
-0.000208459
3.58159e-05
0.000410109
-0.000111432
0.000289085
-9.20679e-05
-0.000247125
-0.000446025
-1.44796e-05
-0.000238671
-0.000128594
0.000129438
-0.000241428
0.000137142
0.000298783
-0.000321551
0.000340927
0.000481346
-0.000455295
0.000481342
0.000630999
-0.000588312
0.00058419
0.000692494
-0.000664337
0.000692144
0.00065868
-0.00066595
0.000847311
0.000512537
-0.000578194
0.00103284
0.000308134
-0.000463108
0.00115053
7.10364e-05
-0.000363564
0.00115385
-0.000136942
-0.000279834
0.00102528
-0.00028599
-0.000242194
0.000855908
-0.000356322
-0.000233206
0.000690861
-0.000331627
-0.000238479
0.000555216
-0.000243086
-0.00021053
0.000426528
-0.000130434
-0.000148557
0.000284921
-1.11328e-05
-0.000101711
0.000122829
6.49499e-05
-0.000100806
-9.9862e-05
-0.000141546
-0.000410568
-0.000211606
0.000109107
-0.00175787
-0.000260345
-0.000102687
-0.00103411
-0.000219155
-0.000358354
-0.000596109
-8.97593e-05
-0.000649711
-0.000213822
8.94285e-05
-0.000813652
8.94229e-05
0.000185403
-0.000807411
0.000244611
0.000206533
-0.000870488
0.000346184
0.000213492
-0.000913828
0.0004623
0.000161371