/*--------------------------------*- C++ -*----------------------------------*\
| =========                 |                                                 |
| \\      /  F ield         | OpenFOAM: The Open Source CFD Toolbox           |
|  \\    /   O peration     | Version:  1.7.1                                 |
|   \\  /    A nd           | Web:      www.OpenFOAM.com                      |
|    \\/     M anipulation  |                                                 |
\*---------------------------------------------------------------------------*/
FoamFile
{
    version     2.0;
    format      ascii;
    class       volVectorField;
    location    "1400";
    object      U;
}
// * * * * * * * * * * * * * * * * * * * * * * * * * * * * * * * * * * * * * //

dimensions      [0 1 -1 0 0 0 0];

internalField   nonuniform List<vector> 
4000
(
(0.000303966 -0.00131719 0.000303962)
(0.000517684 -0.000744007 0.00051832)
(0.000859208 -0.000952673 0.000602358)
(0.00107027 -0.00108851 0.000585312)
(0.000799267 -0.00103969 0.000582767)
(0.000532529 -0.00112995 0.000576928)
(0.000866758 -0.00145534 0.000585264)
(0.00138648 -0.00121869 0.00060344)
(0.00163612 -0.000792295 0.000626895)
(0.00143679 -0.000430875 0.000661277)
(0.000822725 -0.000350124 0.000687341)
(0.000289934 -0.000505024 0.000702544)
(-4.31359e-06 -0.000768112 0.000688942)
(-9.98394e-05 -0.0010273 0.000656961)
(-0.00013257 -0.00116156 0.000627872)
(-0.000309256 -0.00120387 0.000605617)
(-0.000421695 -0.00117407 0.000593902)
(-0.000111663 -0.000812191 0.000638434)
(3.08534e-05 -0.000336674 0.000570825)
(-5.05009e-05 -0.000809595 0.000350137)
(-0.000872211 -0.000312406 -0.000872233)
(-0.00246193 -0.00208943 -0.000462538)
(-0.00295865 -0.00225008 -0.000254694)
(-0.00242237 -0.000838058 -0.000359419)
(-0.00179942 2.7584e-05 -0.000389202)
(-0.00122491 -0.000624945 -0.000333766)
(-0.000885744 -0.00133449 -0.000259749)
(-0.00080442 -0.0013453 -0.00023494)
(-0.000493951 -0.00107716 -0.000228693)
(-0.000103457 -0.000761739 -0.000232241)
(0.000419363 -0.000752626 -0.000228687)
(0.000790003 -0.000956146 -0.000179441)
(0.00104284 -0.00112677 -0.000151851)
(0.00119608 -0.00110523 -0.000176072)
(0.0013823 -0.000575387 -0.000184239)
(0.00153174 -0.000271839 -0.000182849)
(0.00199377 -0.00137966 -0.000201598)
(0.00242502 -0.00258313 -0.000160935)
(0.00181732 -0.00205308 -0.000465488)
(0.000407694 -0.000158504 -0.00105723)
(0.00202204 0.00610582 0.00202203)
(0.00233991 0.00481627 0.00168106)
(-0.001791 0.000551249 0.000369137)
(-0.00489347 -0.000963763 -0.000428572)
(-0.0060218 -0.00217235 -0.000537915)
(-0.0054194 -0.00243738 -0.000437979)
(-0.00444045 -0.00169879 -0.000565106)
(-0.00367179 -0.00141017 -0.000655282)
(-0.00268581 -0.00142367 -0.000750266)
(-0.00132071 -0.00136561 -0.00091147)
(0.000450663 -0.00125677 -0.000995223)
(0.00178671 -0.00109493 -0.000890702)
(0.00279845 -0.0010657 -0.000765861)
(0.00377392 -0.00154144 -0.000723994)
(0.00477342 -0.00219789 -0.000607905)
(0.00499078 -0.00204725 -0.000637125)
(0.00321573 -0.00112335 -0.000515806)
(-0.000873973 0.00109328 0.000520981)
(-0.00384681 0.00516388 0.00159793)
(-0.00281648 0.00500375 0.00194388)
(0.00391975 -0.00932744 0.00391975)
(0.00843922 -0.00296701 0.00393605)
(0.00975806 0.00238341 0.00333262)
(0.00754872 0.00504723 0.00251574)
(0.00400243 0.00328048 0.00204626)
(-0.00194988 -0.000819905 0.000770227)
(-0.00423444 -0.001511 -0.000270059)
(-0.00445472 -0.00189297 -0.000678877)
(-0.00360349 -0.00196565 -0.0010976)
(-0.00188738 -0.00182667 -0.00160084)
(0.000355564 -0.00162533 -0.00187881)
(0.00212778 -0.00148015 -0.001634)
(0.0029312 -0.00126366 -0.00114519)
(0.00233556 -0.000827978 -0.000605266)
(-0.000370064 0.000503235 0.000692446)
(-0.00566321 0.00441035 0.00185645)
(-0.00906027 0.00515644 0.00237746)
(-0.0107513 0.00162459 0.00326643)
(-0.0087377 -0.00430596 0.00384169)
(-0.00388355 -0.0109542 0.00375805)
(0.00215671 -0.0205831 0.0021567)
(0.00608899 -0.0133172 0.00296643)
(0.0082811 -0.00692879 0.00347386)
(0.00999576 -0.00186855 0.00377203)
(0.00989522 0.000784203 0.00381565)
(0.00778521 0.00188736 0.00354342)
(0.00382748 0.00187942 0.00290272)
(0.000261858 0.000395989 0.00200842)
(-0.00171198 -0.000669329 0.000926207)
(-0.00184217 -0.00059217 0.00025183)
(-0.00133257 7.29309e-05 0.000340054)
(-0.00117368 0.00102746 0.00118843)
(-0.00281244 0.00220269 0.00216944)
(-0.00588618 0.00289175 0.00302231)
(-0.00889646 0.0022196 0.00363662)
(-0.0102239 0.000790413 0.00386202)
(-0.00986263 -0.00213007 0.00376538)
(-0.00789418 -0.0074414 0.00339992)
(-0.00580199 -0.0140584 0.00288285)
(-0.00200564 -0.0216348 0.00212461)
(0.000874331 -0.0269218 0.00087433)
(0.00297599 -0.0196007 0.00197658)
(0.00226916 -0.0130359 0.00264093)
(0.0024355 -0.00813202 0.00324181)
(0.0019209 -0.00500985 0.00365779)
(0.00125021 -0.00284839 0.00373719)
(0.000708067 -0.00156113 0.00356234)
(0.000122684 -0.0013923 0.00312635)
(-0.000545324 -0.00133118 0.00285813)
(-0.00118702 -0.00113305 0.00293876)
(-0.00115113 -0.00151388 0.00292544)
(-0.000979767 -0.00158842 0.0030664)
(-0.000775685 -0.00169291 0.00337831)
(-0.000593211 -0.00212922 0.00369838)
(-0.000746646 -0.00338754 0.0038701)
(-0.00128276 -0.00544362 0.00378477)
(-0.00175989 -0.00850684 0.00332425)
(-0.00164362 -0.0134631 0.00268281)
(-0.00256718 -0.0200906 0.00203576)
(-0.000703887 -0.0276287 0.000980175)
(-0.000166071 -0.0291096 -0.000166079)
(0.000366526 -0.0225108 0.00106501)
(-0.00250953 -0.0168776 0.00144021)
(-0.00339164 -0.0132481 0.00161518)
(-0.00407812 -0.0110152 0.00158664)
(-0.00393954 -0.00968635 0.00140608)
(-0.00314924 -0.00891941 0.00114414)
(-0.00202563 -0.00852781 0.000983863)
(-0.000786157 -0.00817241 0.0012037)
(-0.000271303 -0.00802936 0.00177048)
(0.000419298 -0.00883068 0.00142198)
(0.00145955 -0.00918282 0.000933548)
(0.00295713 -0.00939011 0.000880326)
(0.00420755 -0.00970335 0.00109085)
(0.00496832 -0.010357 0.00138338)
(0.0050267 -0.0115538 0.00159263)
(0.00425741 -0.0137004 0.00165215)
(0.00321261 -0.0172742 0.00149599)
(0.000156401 -0.0228277 0.00119055)
(0.000364527 -0.029583 2.48354e-05)
(-0.00147377 -0.027002 -0.00147378)
(-0.00235901 -0.0221218 -0.000310547)
(-0.00627107 -0.0184564 -0.00048134)
(-0.0077089 -0.0165648 -0.000820552)
(-0.00824295 -0.0156363 -0.00132008)
(-0.00760972 -0.0152483 -0.00183207)
(-0.00606661 -0.0150748 -0.00230113)
(-0.00392141 -0.0149061 -0.0026122)
(-0.00139829 -0.0146151 -0.00254677)
(0.000130676 -0.0143953 -0.00181784)
(0.0014628 -0.0150021 -0.00209891)
(0.00305929 -0.0154459 -0.00267997)
(0.00542572 -0.0156558 -0.00268702)
(0.00747355 -0.0157297 -0.00235516)
(0.00888058 -0.0158151 -0.00186189)
(0.00936588 -0.0161159 -0.00132311)
(0.00868095 -0.0169714 -0.000796032)
(0.00703943 -0.0188049 -0.00042776)
(0.00293332 -0.0224139 -0.000174534)
(0.00171106 -0.0273243 -0.00123271)
(-0.00359254 -0.020745 -0.00359254)
(-0.00585134 -0.0176876 -0.00290278)
(-0.0103154 -0.0160273 -0.0035243)
(-0.0119945 -0.0156579 -0.00424853)
(-0.0122965 -0.0158005 -0.00501623)
(-0.0112147 -0.0161719 -0.00575306)
(-0.00902153 -0.0165765 -0.00638117)
(-0.00600087 -0.0168622 -0.00678564)
(-0.00240735 -0.0169127 -0.00671383)
(-4.53621e-05 -0.0168454 -0.00563047)
(0.00216312 -0.0171284 -0.00588937)
(0.00441967 -0.0173405 -0.00677585)
(0.00770191 -0.0172598 -0.00685076)
(0.0105454 -0.0169391 -0.00645058)
(0.0125715 -0.0165071 -0.00580733)
(0.0134896 -0.016108 -0.0050438)
(0.0130182 -0.0159359 -0.00424114)
(0.0111303 -0.0162754 -0.00347335)
(0.00644918 -0.0178907 -0.00277098)
(0.00384637 -0.0209391 -0.00334125)
(-0.0070836 -0.0131429 -0.00708361)
(-0.011422 -0.0106039 -0.00789523)
(-0.0158619 -0.00939825 -0.0094374)
(-0.0174416 -0.00905149 -0.0109921)
(-0.0174891 -0.00893495 -0.0125819)
(-0.0160894 -0.0088719 -0.0141337)
(-0.0134074 -0.00873836 -0.0155651)
(-0.00957408 -0.00844013 -0.0166977)
(-0.00479869 -0.00793036 -0.0171447)
(-0.00109978 -0.0074794 -0.0158163)
(0.00322728 -0.00761878 -0.0160611)
(0.0067496 -0.00816089 -0.0171333)
(0.0112305 -0.00865204 -0.0167338)
(0.014894 -0.00893795 -0.0156371)
(0.017425 -0.00906507 -0.0142093)
(0.0186713 -0.00912177 -0.0126339)
(0.0184501 -0.00922796 -0.0110008)
(0.0166518 -0.00956098 -0.00938483)
(0.0119608 -0.0107392 -0.00775759)
(0.00733149 -0.0132608 -0.00683457)
(0.000518313 -0.000744002 0.000517689)
(0.00104298 -0.000620974 0.00104299)
(0.00152041 -0.000729983 0.00129702)
(0.0016331 -0.000643695 0.00131223)
(0.00126371 -0.000469568 0.00127152)
(0.000945561 -0.000617304 0.00123738)
(0.00122555 -0.000993266 0.00123909)
(0.00168214 -0.000846334 0.00126848)
(0.00185843 -0.000503275 0.00134148)
(0.00158221 -0.000171675 0.00145985)
(0.00089972 -9.73208e-05 0.00155381)
(0.000282192 -0.000262714 0.0015965)
(-0.000107301 -0.000511523 0.0015691)
(-0.000293683 -0.000726707 0.00150617)
(-0.000394771 -0.000814206 0.00145502)
(-0.000598942 -0.000860456 0.00142258)
(-0.000785514 -0.000970192 0.00143337)
(-0.000607763 -0.000816073 0.00144537)
(-0.000313906 -0.00026278 0.00120616)
(-0.000165083 2.52611e-05 0.000764465)
(-0.000462534 -0.00208942 -0.00246194)
(-0.00107974 -0.00217007 -0.00107975)
(-0.00117273 -0.00153454 -0.000339471)
(-0.000889691 -0.000408816 -0.000300069)
(-0.000634421 0.000125732 -0.00024581)
(-0.000224876 -0.000661235 -0.000100908)
(-4.17751e-06 -0.00128877 -1.44947e-05)
(-7.42533e-05 -0.00127301 1.72923e-05)
(4.30088e-05 -0.000934259 2.95457e-05)
(0.000242323 -0.000578424 2.28216e-05)
(0.000464355 -0.000531504 3.0371e-05)
(0.000580379 -0.000676347 0.000105651)
(0.000581144 -0.000896058 0.000134535)
(0.000533882 -0.00100131 9.82843e-05)
(0.000592084 -0.000662285 9.07065e-05)
(0.000624125 -0.000227531 3.37987e-05)
(0.000651517 -0.000918886 -1.59858e-05)
(0.000843345 -0.00188511 -0.000162304)
(0.000737384 -0.00213356 -0.00109558)
(0.000261885 -0.00173872 -0.00246343)
(0.00168107 0.00481623 0.00233986)
(0.00213358 0.00228174 0.00213354)
(-0.00022932 -0.000202753 0.000534434)
(-0.00279616 -0.00141214 -0.000831952)
(-0.00354426 -0.00223353 -0.000873775)
(-0.00306357 -0.0026402 -0.000499108)
(-0.00249065 -0.00206245 -0.000603049)
(-0.00223781 -0.00183474 -0.00075091)
(-0.00166258 -0.00179634 -0.000915145)
(-0.000739755 -0.00164815 -0.00120554)
(0.000294236 -0.00149398 -0.00135667)
(0.00113358 -0.0012534 -0.00123869)
(0.00169462 -0.00109913 -0.00109761)
(0.00214103 -0.00161619 -0.0010277)
(0.00264339 -0.00221387 -0.000894701)
(0.00275964 -0.00205007 -0.00112153)
(0.00129887 -0.00141338 -0.000869898)
(-0.00185477 3.0262e-05 0.000787079)
(-0.0034642 0.00249726 0.00199008)
(-0.00237476 0.00446853 0.00211597)
(0.00393604 -0.00296701 0.00843922)
(0.00766144 0.000896514 0.00766144)
(0.00884481 0.00383958 0.00591033)
(0.00736821 0.0043881 0.00423633)
(0.00438636 0.00190953 0.00307071)
(0.000274822 -0.00152418 0.00156317)
(-0.00208788 -0.00242042 -5.60174e-05)
(-0.00263481 -0.00289939 -0.000820356)
(-0.0022097 -0.00309643 -0.00151783)
(-0.00117026 -0.00290484 -0.00242515)
(4.52813e-05 -0.00265027 -0.00276948)
(0.00108504 -0.00246412 -0.00232891)
(0.00154301 -0.00200337 -0.0017244)
(0.000677664 -0.00165985 -0.000840227)
(-0.0022795 -0.000236219 0.00131979)
(-0.00605056 0.00300843 0.00283791)
(-0.00888782 0.00467545 0.00410044)
(-0.0100686 0.00329931 0.00590394)
(-0.00829322 -0.000408338 0.00761868)
(-0.00411071 -0.00483344 0.00821416)
(0.00296642 -0.0133172 0.006089)
(0.0074266 -0.00839454 0.00742661)
(0.010398 -0.00369379 0.00788622)
(0.012125 0.000285712 0.00751721)
(0.0119807 0.00201838 0.00677215)
(0.00975492 0.00230755 0.00569173)
(0.00581569 0.00137434 0.00420011)
(0.00215514 -0.00107209 0.00243495)
(-0.000261584 -0.00297894 0.000555605)
(-0.00100925 -0.00346354 -0.00120662)
(-0.00124968 -0.00292481 -0.0012855)
(-0.0023973 -0.00152979 0.000419582)
(-0.00467142 0.00104815 0.00260453)
(-0.00791546 0.00276418 0.00437869)
(-0.0110457 0.00293382 0.00577007)
(-0.0126815 0.00227145 0.00678023)
(-0.0123966 0.000126908 0.00743962)
(-0.0103532 -0.00430767 0.0077001)
(-0.00735338 -0.00940797 0.00714136)
(-0.00288788 -0.0147143 0.00573354)
(0.00197658 -0.0196007 0.00297599)
(0.00571246 -0.0143289 0.00571246)
(0.00666001 -0.0088412 0.00725553)
(0.00745637 -0.00400512 0.00802157)
(0.00733029 -0.00049011 0.00821458)
(0.00652938 0.0018407 0.00779191)
(0.00484316 0.00262435 0.00705776)
(0.00271618 0.00216588 0.00607698)
(0.000369096 0.00122338 0.00466472)
(-0.00122725 0.00106092 0.00374289)
(-0.0018537 0.00158956 0.00428963)
(-0.00309909 0.00222601 0.00560547)
(-0.00449966 0.00275815 0.00657632)
(-0.00575947 0.00293063 0.00739424)
(-0.00684572 0.00190469 0.00811514)
(-0.00724884 -0.000592447 0.00848242)
(-0.00720961 -0.004294 0.00817867)
(-0.00638058 -0.00941201 0.00731705)
(-0.00555803 -0.0151971 0.00571605)
(-0.00189168 -0.0207111 0.00291343)
(0.00106501 -0.0225108 0.00036652)
(0.00431425 -0.0172286 0.00431424)
(0.0032177 -0.011708 0.00647254)
(0.00294455 -0.00681816 0.00756457)
(0.00222323 -0.00320092 0.00810729)
(0.00180548 -0.000704189 0.00819998)
(0.00169088 0.000568017 0.00802007)
(0.00126999 0.00058009 0.00775555)
(0.000530993 -1.2045e-05 0.00772795)
(-0.000447312 -0.000450606 0.00781524)
(-0.000837755 -0.000423377 0.00779281)
(-0.00117872 0.000130715 0.00781339)
(-0.00133903 0.000481761 0.0079797)
(-0.00140347 0.000335449 0.00822975)
(-0.00129159 -0.000992671 0.00839358)
(-0.00168075 -0.0034873 0.00830143)
(-0.00242109 -0.00718249 0.0077544)
(-0.0027794 -0.0121979 0.00666006)
(-0.00408516 -0.0179359 0.00450611)
(-0.000977906 -0.0233659 0.000514189)
(-0.000310543 -0.0221217 -0.00235902)
(0.00232784 -0.0171277 0.00232783)
(-0.000570181 -0.0123188 0.00452196)
(-0.00147007 -0.00856525 0.00529606)
(-0.00219768 -0.00585622 0.00536154)
(-0.00208856 -0.00384394 0.00516689)
(-0.00149903 -0.00230166 0.00495511)
(-0.000750644 -0.00114816 0.00484883)
(1.95632e-05 -0.000378555 0.00505503)
(0.000321545 9.11135e-06 0.00561384)
(0.000726527 -0.00046589 0.00536795)
(0.00104076 -0.00104052 0.00483755)
(0.00181261 -0.00179425 0.00473694)
(0.0025239 -0.00287701 0.00490489)
(0.00302331 -0.00433937 0.00519191)
(0.00302046 -0.00629297 0.00545666)
(0.00217688 -0.00898817 0.00544093)
(0.00114949 -0.0126953 0.00474612)
(-0.00200969 -0.0176812 0.00260511)
(0.000400008 -0.0227123 -0.0020907)
(-0.00290278 -0.0176876 -0.00585136)
(-0.00222031 -0.0136267 -0.00222032)
(-0.00609286 -0.0109404 -0.000890912)
(-0.00734479 -0.00966101 -0.000770202)
(-0.00775898 -0.0090043 -0.00121975)
(-0.00702096 -0.0087647 -0.00184778)
(-0.00544297 -0.00876656 -0.00237368)
(-0.00336596 -0.00891541 -0.00254653)
(-0.0010032 -0.0091102 -0.00199375)
(0.000264902 -0.00897847 -0.000319438)
(0.00159826 -0.00916797 -0.000712075)
(0.00269957 -0.00935829 -0.00226145)
(0.00480597 -0.00916653 -0.00275628)
(0.00672821 -0.00900883 -0.00255715)
(0.00815361 -0.00901516 -0.00197876)
(0.00874252 -0.00927495 -0.00127564)
(0.00816897 -0.00995677 -0.000736396)
(0.00670878 -0.011258 -0.000743101)
(0.00262078 -0.0139829 -0.00195541)
(0.00301473 -0.0180493 -0.00554555)
(-0.00789522 -0.0106039 -0.011422)
(-0.0118537 -0.00697777 -0.0118537)
(-0.016431 -0.00493213 -0.0136806)
(-0.0180403 -0.00390607 -0.015876)
(-0.0182379 -0.00317763 -0.0182563)
(-0.0170796 -0.00255319 -0.0206335)
(-0.0147423 -0.00189218 -0.0228505)
(-0.0112909 -0.00110418 -0.0246319)
(-0.0067748 -0.000151108 -0.0254435)
(-0.0026863 0.000903734 -0.0241507)
(0.00419369 0.000903637 -0.0243766)
(0.00817702 -0.000201149 -0.0255226)
(0.0125743 -0.00117671 -0.024758)
(0.0159364 -0.00198478 -0.0230107)
(0.0181712 -0.00266764 -0.0207885)
(0.0192082 -0.00331308 -0.0183684)
(0.0188586 -0.00406215 -0.0159169)
(0.01705 -0.00511152 -0.0136255)
(0.0122398 -0.00717783 -0.0116831)
(0.008045 -0.0108185 -0.011155)
(0.000602349 -0.00095267 0.000859216)
(0.001297 -0.000729977 0.00152042)
(0.00180768 -0.00055665 0.0018077)
(0.00188751 -0.000242638 0.00185085)
(0.00154143 -6.46704e-05 0.00183091)
(0.00130572 -0.000330243 0.00189781)
(0.00160699 -0.00082019 0.00200283)
(0.00204917 -0.000792228 0.00209315)
(0.00216606 -0.00052384 0.00220355)
(0.00181939 -0.000179875 0.00239156)
(0.00102179 -7.64821e-05 0.0025386)
(0.000280537 -0.000219681 0.00257242)
(-0.000208449 -0.000413814 0.00251072)
(-0.00046767 -0.000568277 0.00239686)
(-0.000587599 -0.000591297 0.00228626)
(-0.000753481 -0.000595589 0.00221259)
(-0.000932576 -0.000703652 0.00219648)
(-0.000839732 -0.000742987 0.00213957)
(-0.000550872 -0.000478317 0.0018154)
(-0.000262371 -0.000292198 0.00120737)
(-0.000254703 -0.00225004 -0.00295866)
(-0.000339479 -0.00153452 -0.00117275)
(-0.000248896 -0.000726905 -0.000248897)
(-1.11755e-05 0.00018797 -2.77465e-05)
(0.000268786 0.000189247 0.00015817)
(0.000686206 -0.000713553 0.000385051)
(0.000864709 -0.00136701 0.000540411)
(0.000731519 -0.00140913 0.000678592)
(0.000657626 -0.00107715 0.000768364)
(0.000606545 -0.000701454 0.000783542)
(0.000536556 -0.000591898 0.000777146)
(0.000386236 -0.000640951 0.000819339)
(0.000153746 -0.000785173 0.000789503)
(-6.38329e-05 -0.000888289 0.000689837)
(-5.71045e-05 -0.000662527 0.000579668)
(3.59927e-05 -0.00010062 0.000408933)
(1.964e-05 -0.000182109 0.000231398)
(0.000178554 -0.00085929 -4.1852e-05)
(0.000295237 -0.00136121 -0.00108896)
(0.000253499 -0.00199472 -0.00281486)
(0.000369138 0.000551245 -0.00179108)
(0.000534446 -0.000202757 -0.000229391)
(-0.000823309 -0.00108619 -0.000823348)
(-0.00215333 -0.00173762 -0.00130624)
(-0.00222117 -0.00229756 -0.000842501)
(-0.00158306 -0.00262919 -0.000274772)
(-0.00108106 -0.0022191 -0.000267266)
(-0.00106476 -0.00211373 -0.000361776)
(-0.000777155 -0.00198667 -0.000514225)
(-0.000276328 -0.00176015 -0.000839347)
(0.000203598 -0.00157202 -0.00107157)
(0.000625158 -0.00133147 -0.00106976)
(0.000903596 -0.00111194 -0.00103135)
(0.00101033 -0.00146826 -0.000979817)
(0.00137697 -0.00209417 -0.000960797)
(0.00169876 -0.00201558 -0.001335)
(0.00115766 -0.00166474 -0.00150161)
(-0.000343742 -0.00110459 -0.000828515)
(-0.00142256 -0.000213089 -0.000348769)
(-0.000689631 0.00062016 -0.00202153)
(0.00333263 0.00238341 0.00975805)
(0.00591034 0.00383958 0.0088448)
(0.00696925 0.00435608 0.00696923)
(0.00602255 0.00332057 0.00504768)
(0.00357767 0.000426819 0.0033617)
(0.00061416 -0.00216711 0.00156157)
(-0.0010945 -0.00283359 0.000186179)
(-0.00157511 -0.00330068 -0.00046952)
(-0.00132175 -0.00344348 -0.00124549)
(-0.000718426 -0.00311458 -0.00225575)
(-0.000120155 -0.00277584 -0.0026569)
(0.000450811 -0.00265341 -0.00225969)
(0.000768577 -0.00223207 -0.00177758)
(0.000123738 -0.00192525 -0.000976851)
(-0.00221286 -0.00101028 0.00107561)
(-0.00506367 0.00145607 0.00305446)
(-0.00741406 0.00384149 0.00484519)
(-0.00816431 0.00431621 0.00692718)
(-0.00673633 0.003187 0.0089045)
(-0.0037119 0.00122101 0.00974135)
(0.00347386 -0.00692879 0.00828111)
(0.00788621 -0.00369379 0.010398)
(0.0109571 -0.000541916 0.0109571)
(0.0125099 0.0017085 0.0102829)
(0.0121562 0.00233818 0.00897155)
(0.00991966 0.0020098 0.00719976)
(0.00619359 0.000408357 0.00504418)
(0.00268029 -0.00228116 0.00274626)
(0.000345169 -0.00401762 0.00048898)
(-0.000621792 -0.00436354 -0.00163876)
(-0.00114903 -0.00391058 -0.00182687)
(-0.00256974 -0.00288496 1.19799e-05)
(-0.00500319 -0.000369739 0.0026864)
(-0.00828108 0.00204574 0.00516697)
(-0.0113338 0.0028818 0.00725282)
(-0.0131434 0.0027837 0.00898193)
(-0.0131604 0.00172905 0.0101846)
(-0.0113041 -0.0010327 0.0107335)
(-0.00802006 -0.00456348 0.00996803)
(-0.00347116 -0.00812379 0.00767803)
(0.00264093 -0.0130359 0.00226916)
(0.00725553 -0.0088412 0.00666001)
(0.00925601 -0.00506995 0.00925602)
(0.0104949 -0.00150863 0.010348)
(0.0105956 0.00128945 0.0103527)
(0.00946328 0.00287687 0.00955629)
(0.00736572 0.00303154 0.0083508)
(0.00461609 0.0019884 0.00672964)
(0.00154354 0.00014673 0.00427459)
(-0.000877954 -0.000930639 0.00208198)
(-0.00231442 0.000135003 0.00270921)
(-0.00443594 0.00172898 0.00521661)
(-0.00676389 0.00297079 0.00720721)
(-0.00870874 0.00371977 0.0086131)
(-0.0102596 0.00327706 0.00982021)
(-0.0110409 0.00143114 0.0105951)
(-0.0106718 -0.00169427 0.0104857)
(-0.0092943 -0.00562376 0.00926674)
(-0.00726269 -0.00973266 0.00655566)
(-0.0025636 -0.0141111 0.00202954)
(0.00144021 -0.0168776 -0.00250954)
(0.00647254 -0.0117079 0.0032177)
(0.00692808 -0.00742818 0.00692808)
(0.00732176 -0.00337442 0.00897421)
(0.00699949 -0.000192928 0.00994924)
(0.00623113 0.00184018 0.00985114)
(0.00520173 0.0023741 0.00922105)
(0.00378005 0.0016104 0.00840828)
(0.00195117 0.000247131 0.00777813)
(-0.000253921 -0.000595701 0.00738506)
(-0.00189495 -0.000177865 0.00753131)
(-0.00335313 0.000943741 0.00802752)
(-0.00461065 0.00205676 0.00874022)
(-0.00562978 0.00268308 0.00951089)
(-0.00636621 0.00203412 0.0101301)
(-0.00692837 -0.000193162 0.0102297)
(-0.00715726 -0.00365763 0.00922083)
(-0.0067492 -0.00799691 0.00714129)
(-0.0063795 -0.0125339 0.00338217)
(-0.00134615 -0.0177669 -0.00245687)
(-0.000481341 -0.0184564 -0.00627109)
(0.00452197 -0.0123188 -0.000570195)
(0.00330367 -0.00782506 0.00330366)
(0.00314272 -0.00361134 0.00520728)
(0.00258307 -3.82896e-06 0.00599895)
(0.00259132 0.00269952 0.00636608)
(0.00246105 0.00405259 0.0060732)
(0.00202956 0.00451145 0.00555719)
(0.00151816 0.00455719 0.00543022)
(0.000586365 0.00438779 0.00586664)
(-0.000551588 0.00430581 0.00572887)
(-0.0013598 0.00450973 0.00541742)
(-0.00179529 0.00448104 0.00564087)
(-0.00214038 0.00399627 0.00619985)
(-0.00219809 0.00258453 0.00653419)
(-0.00214838 -0.000241096 0.00621498)
(-0.00275464 -0.00400176 0.0054883)
(-0.00297017 -0.00835651 0.00361086)
(-0.00433843 -0.0130202 -0.000293295)
(0.000562889 -0.019128 -0.00608052)
(-0.00352431 -0.0160273 -0.0103154)
(-0.000890903 -0.0109404 -0.00609288)
(-0.00341607 -0.00762827 -0.00341608)
(-0.00347672 -0.00569522 -0.00237409)
(-0.00346786 -0.00450122 -0.00261105)
(-0.00279974 -0.00381801 -0.0032032)
(-0.00153228 -0.00357291 -0.00334963)
(-0.00024145 -0.0038502 -0.0032291)
(0.000729066 -0.00443282 -0.00243951)
(0.000823796 -0.00398368 -0.000876963)
(0.000644727 -0.00405886 -0.00103886)
(0.000390531 -0.00445182 -0.0026519)
(0.00118681 -0.00389072 -0.00341166)
(0.00238834 -0.0036524 -0.00354512)
(0.00356773 -0.00392959 -0.00330987)
(0.0041742 -0.00469442 -0.00264741)
(0.00408731 -0.00597172 -0.00233004)
(0.00386755 -0.00797185 -0.0032685)
(0.0011838 -0.0113466 -0.0058789)
(0.00362098 -0.0164458 -0.0100842)
(-0.0094374 -0.00939824 -0.0158619)
(-0.0136806 -0.00493212 -0.016431)
(-0.0184845 -0.00247828 -0.0184845)
(-0.0200902 -0.00114896 -0.0211728)
(-0.0202559 -0.000130855 -0.0241621)
(-0.0190763 0.000779417 -0.0271672)
(-0.016755 0.00177618 -0.0300102)
(-0.013285 0.00294631 -0.032399)
(-0.00856414 0.00434317 -0.0336762)
(-0.00396447 0.00597673 -0.0324733)
(0.00479176 0.00611767 -0.0326709)
(0.00945418 0.00442917 -0.0337999)
(0.0141929 0.00296871 -0.0325879)
(0.0176692 0.00175144 -0.0302509)
(0.0199637 0.000717647 -0.0274127)
(0.0210859 -0.000225081 -0.0243687)
(0.0208165 -0.00127368 -0.0213027)
(0.0190495 -0.00264293 -0.0185093)
(0.0140408 -0.00513205 -0.0163393)
(0.00959492 -0.00963329 -0.0156858)
(0.000585306 -0.00108851 0.00107028)
(0.00131222 -0.000643689 0.00163311)
(0.00185083 -0.000242634 0.00188753)
(0.00193609 0.000122504 0.00193611)
(0.00175673 0.00017651 0.00204658)
(0.00173139 -0.000218517 0.00237326)
(0.00209298 -0.000736064 0.00273763)
(0.002527 -0.000844729 0.00301948)
(0.002598 -0.000682635 0.0032562)
(0.00214873 -0.000350426 0.0035504)
(0.00114598 -0.00019595 0.00373634)
(0.000201133 -0.000275207 0.00365585)
(-0.000400882 -0.000389528 0.0034476)
(-0.000722628 -0.000446389 0.00317951)
(-0.000840493 -0.000384061 0.00290956)
(-0.000921318 -0.000298791 0.00267381)
(-0.00102343 -0.000349791 0.00252479)
(-0.000964129 -0.000442087 0.00238731)
(-0.0006837 -0.000500003 0.0020651)
(-0.000342223 -0.00072739 0.00152528)
(-0.000359427 -0.00083802 -0.00242238)
(-0.00030008 -0.000408785 -0.00088971)
(-2.77505e-05 0.000187985 -1.1187e-05)
(0.000403918 0.00049285 0.000403911)
(0.000909507 -6.26943e-05 0.000733444)
(0.00143244 -0.000920068 0.00100134)
(0.00165123 -0.00148056 0.00121694)
(0.00155809 -0.00160474 0.00149147)
(0.00134434 -0.00131765 0.0017438)
(0.00101753 -0.000929879 0.00184547)
(0.000610995 -0.000735 0.00183057)
(0.000151595 -0.000657923 0.0017749)
(-0.000293583 -0.000672573 0.0016162)
(-0.000626042 -0.000702736 0.00139262)
(-0.000672483 -0.000555765 0.00115828)
(-0.000482079 -1.45921e-05 0.000844027)
(-0.00026894 0.000435132 0.000507639)
(2.43726e-05 0.000341896 0.000177065)
(0.000310337 5.19649e-05 -0.000669959)
(0.000345688 -0.000274147 -0.00204773)
(-0.00042856 -0.000963756 -0.0048935)
(-0.00083193 -0.00141213 -0.0027962)
(-0.0013062 -0.00173762 -0.00215337)
(-0.00150303 -0.00206268 -0.00150307)
(-0.0010961 -0.00254255 -0.00056287)
(-0.000358571 -0.00255439 0.000155948)
(-3.36666e-05 -0.00236763 0.000256092)
(-7.09093e-05 -0.00236225 0.000347644)
(2.11828e-05 -0.00213992 0.000325661)
(0.000108916 -0.00183077 5.59838e-05)
(0.000109359 -0.00156792 -0.000238567)
(0.000123595 -0.00129819 -0.000382754)
(0.000199801 -0.00108004 -0.000527093)
(0.00012159 -0.00118269 -0.000640014)
(0.000344361 -0.00180142 -0.000718592)
(0.000838512 -0.00196826 -0.00125897)
(0.000938074 -0.00178773 -0.00193814)
(0.000520717 -0.00156743 -0.00226998)
(0.000162964 -0.00130204 -0.00281162)
(0.000233 -0.000820659 -0.00501452)
(0.00251575 0.00504721 0.00754871)
(0.00423634 0.00438809 0.00736819)
(0.0050477 0.00332056 0.00602253)
(0.00424384 0.00121761 0.00424382)
(0.00235933 -0.00132748 0.00255253)
(0.000476445 -0.00275511 0.00116685)
(-0.000535462 -0.00321049 0.000438244)
(-0.000806031 -0.00358213 0.000133764)
(-0.000694351 -0.00354122 -0.000502977)
(-0.000440767 -0.00315632 -0.00144885)
(-0.000267976 -0.00276004 -0.00189814)
(-5.18664e-05 -0.00264158 -0.00159227)
(0.000212875 -0.00242928 -0.00128252)
(-0.000129654 -0.00210934 -0.000882493)
(-0.00156656 -0.0017634 0.000376771)
(-0.00364907 -0.000308467 0.00218721)
(-0.00551111 0.00191394 0.00401751)
(-0.00615683 0.00366132 0.00587787)
(-0.00505253 0.00443091 0.00728004)
(-0.00292537 0.00489745 0.00742803)
(0.00377202 -0.00186857 0.00999577)
(0.0075172 0.000285702 0.012125)
(0.0102828 0.00170849 0.0125099)
(0.0114973 0.00229673 0.0114973)
(0.0109723 0.00212408 0.00971365)
(0.0087272 0.00117036 0.00744462)
(0.00552759 -0.00083752 0.00513578)
(0.00260161 -0.00314565 0.00304474)
(0.000594882 -0.00437549 0.00111454)
(-0.000401672 -0.00460694 -0.000867771)
(-0.00112583 -0.00420796 -0.00116856)
(-0.00240095 -0.0034943 0.000425651)
(-0.00450143 -0.00169614 0.00258777)
(-0.00744823 0.000906024 0.00511638)
(-0.0102968 0.00239165 0.00754603)
(-0.0121265 0.00279288 0.00975333)
(-0.0123878 0.00258683 0.0114608)
(-0.0109061 0.00156908 0.0123382)
(-0.00788031 -0.000267157 0.0117663)
(-0.00390756 -0.00289585 0.0094317)
(0.00324181 -0.00813202 0.0024355)
(0.00802157 -0.00400512 0.00745638)
(0.010348 -0.00150863 0.0104949)
(0.011684 0.000737662 0.0116841)
(0.0117672 0.00227792 0.011464)
(0.0106682 0.00293933 0.0104802)
(0.00864399 0.00251106 0.00911338)
(0.00578613 0.001066 0.00716778)
(0.00258517 -0.00106984 0.00456367)
(-0.000235503 -0.00258898 0.00220314)
(-0.00269316 -0.00159756 0.00256191)
(-0.00525952 0.000497211 0.00516141)
(-0.00803633 0.00227429 0.0076567)
(-0.0101494 0.00338354 0.00927587)
(-0.0117389 0.00358813 0.0106455)
(-0.0125497 0.00262101 0.0116506)
(-0.0122215 0.00075795 0.0117953)
(-0.0106398 -0.00185337 0.0104619)
(-0.0081551 -0.00466077 0.00726894)
(-0.00316808 -0.0090564 0.00208083)
(0.00161517 -0.0132481 -0.00339166)
(0.00756457 -0.00681816 0.00294455)
(0.0089742 -0.00337442 0.00732176)
(0.00986949 -0.000712569 0.0098695)
(0.00970511 0.0014153 0.0108577)
(0.00896287 0.0025392 0.0108015)
(0.00770879 0.00242443 0.0101487)
(0.00584758 0.00125238 0.00919039)
(0.00335463 -0.000497797 0.00808665)
(0.000159609 -0.00180597 0.00697853)
(-0.00280304 -0.00109734 0.00739451)
(-0.00520717 0.000466888 0.00853301)
(-0.00717725 0.00199099 0.00953197)
(-0.00858778 0.00304615 0.0104275)
(-0.0095402 0.00305946 0.0110661)
(-0.0100478 0.00166721 0.0111362)
(-0.0100147 -0.000800426 0.0100987)
(-0.00898909 -0.00382166 0.0074804)
(-0.00755181 -0.00753849 0.00300748)
(-0.00149814 -0.0141236 -0.00343411)
(-0.000820558 -0.0165647 -0.00770892)
(0.00529606 -0.00856525 -0.00147008)
(0.00520728 -0.00361133 0.00314271)
(0.00599886 0.000670477 0.00599885)
(0.00605924 0.00346677 0.00746525)
(0.0057141 0.00492332 0.00784062)
(0.00513837 0.00543163 0.00755296)
(0.0041956 0.00537454 0.00702229)
(0.00295231 0.00514681 0.00672975)
(0.00099534 0.00490689 0.00688527)
(-0.00165357 0.00499298 0.00693198)
(-0.00343444 0.00530883 0.00691125)
(-0.0045878 0.00561651 0.00722634)
(-0.00537926 0.00566972 0.00775348)
(-0.00581885 0.00512616 0.00806107)
(-0.00603328 0.00350677 0.00772653)
(-0.00588726 0.00042733 0.00627062)
(-0.00505928 -0.00410121 0.00338994)
(-0.00519748 -0.00921429 -0.00131636)
(0.000914891 -0.0172647 -0.00759773)
(-0.00424853 -0.0156579 -0.0119945)
(-0.000770198 -0.00966101 -0.00734481)
(-0.00237408 -0.00569522 -0.00347674)
(-0.00140338 -0.00326651 -0.0014034)
(-0.000473848 -0.00168905 -0.000449989)
(0.000316855 -0.00083133 -0.000494948)
(0.00102135 -0.000863472 -0.00108658)
(0.00145093 -0.00138275 -0.0015781)
(0.00151122 -0.00181098 -0.00149333)
(0.000846808 -0.000899775 -0.00042115)
(-0.000158484 -0.00080265 -0.000456529)
(-0.00110698 -0.00166087 -0.00145699)
(-0.00118707 -0.00123388 -0.00154522)
(-0.000780716 -0.000734508 -0.00107151)
(-7.04135e-05 -0.00073308 -0.000442216)
(0.000784546 -0.00171082 -0.000399514)
(0.00179565 -0.00344807 -0.00136676)
(0.0027309 -0.0059942 -0.0034106)
(0.0010317 -0.0100564 -0.00721898)
(0.00436213 -0.0161039 -0.0118461)
(-0.0109921 -0.00905148 -0.0174416)
(-0.015876 -0.00390607 -0.0180404)
(-0.0211728 -0.00114895 -0.0200902)
(-0.0228973 0.000359204 -0.0228973)
(-0.0229854 0.00161853 -0.0260122)
(-0.021696 0.00274142 -0.0292429)
(-0.0193606 0.00397012 -0.032551)
(-0.0158455 0.00543142 -0.0355904)
(-0.0107746 0.00719213 -0.0375061)
(-0.00541874 0.0092838 -0.0367913)
(0.00554554 0.00960694 -0.0368941)
(0.011179 0.00741309 -0.0376026)
(0.0163848 0.00555257 -0.035764)
(0.0200048 0.00401698 -0.0327937)