/*--------------------------------*- C++ -*----------------------------------*\
| =========                 |                                                 |
| \\      /  F ield         | OpenFOAM: The Open Source CFD Toolbox           |
|  \\    /   O peration     | Version:  1.7.1                                 |
|   \\  /    A nd           | Web:      www.OpenFOAM.com                      |
|    \\/     M anipulation  |                                                 |
\*---------------------------------------------------------------------------*/
FoamFile
{
    version     2.0;
    format      ascii;
    class       volScalarField;
    location    "0.2";
    object      p;
}
// * * * * * * * * * * * * * * * * * * * * * * * * * * * * * * * * * * * * * //

dimensions      [0 2 -2 0 0 0 0];

internalField   nonuniform List<scalar> 
400
(
2.18892e-06
-0.00582397
-0.0129588
-0.0184079
-0.0204232
-0.0182284
-0.0117637
-0.00147436
0.0118451
0.0271548
0.0432478
0.0588242
0.072578
0.0833067
0.0900509
0.092266
0.0900269
0.0842477
0.0768873
0.0710757
0.00577807
-0.000218859
-0.00580221
-0.00953842
-0.0105931
-0.00842576
-0.00296261
0.00548121
0.0163092
0.0287169
0.0417537
0.0543887
0.0655882
0.0744112
0.0801217
0.0823181
0.0810812
0.0770609
0.0712826
0.0653284
0.0133292
0.00503096
-0.000995458
-0.00442105
-0.00526918
-0.00325905
0.00160786
0.00903329
0.0185076
0.0293543
0.0407699
0.0518735
0.0617719
0.0696397
0.0748107
0.0768827
0.0758478
0.0720941
0.0658162
0.0575491
0.0201305
0.00869144
0.00122434
-0.00266777
-0.0037196
-0.00188154
0.00273589
0.00978967
0.0187857
0.0291003
0.039997
0.0506588
0.0602376
0.0679207
0.0730084
0.0750077
0.0737736
0.0694661
0.0616159
0.0501194
0.0244911
0.0097675
0.000587524
-0.00398678
-0.00530025
-0.00350396
0.00117915
0.00833971
0.0174676
0.0279549
0.0390909
0.0500758
0.0600548
0.0681711
0.0736329
0.0758052
0.0743781
0.0693012
0.0595403
0.0445566
0.0251667
0.00714446
-0.00380412
-0.00905693
-0.01051
-0.00849626
-0.00335187
0.00443532
0.0143199
0.025686
0.037821
0.0499106
0.0610554
0.0703105
0.0767424
0.0795255
0.0781491
0.0723459
0.060555
0.0419109
0.021084
-0.000266559
-0.0129354
-0.018708
-0.0200266
-0.0174091
-0.0113122
-0.00231242
0.00899855
0.0219848
0.0359186
0.0499533
0.063121
0.0743541
0.0825309
0.0865791
0.0857316
0.0794599
0.0656364
0.0430925
0.011137
-0.0136197
-0.0278738
-0.0338511
-0.0345986
-0.030851
-0.0232049
-0.012336
0.00111495
0.0164946
0.0330635
0.0499445
0.066094
0.0803002
0.0912109
0.0974405
0.0978816
0.0916489
0.0759116
0.0491359
-0.00596758
-0.0342641
-0.0498657
-0.0555429
-0.055083
-0.0495059
-0.0395834
-0.026102
-0.00974478
0.00883591
0.0289141
0.0496064
0.0698099
0.0881664
0.103059
0.112712
0.115562
0.110204
0.0928482
0.0614282
-0.0318511
-0.0638691
-0.0804091
-0.0849985
-0.0824104
-0.0740673
-0.0609686
-0.0440231
-0.023937
-0.00132184
0.0231607
0.0486758
0.0741097
0.0979855
0.118408
0.133137
0.14
0.136829
0.118453
0.0819471
-0.0686544
-0.104592
-0.121333
-0.123578
-0.117503
-0.105113
-0.087704
-0.0663101
-0.0416207
-0.0141388
0.0156224
0.0469696
0.0788713
0.109808
0.137637
0.159598
0.172738
0.173788
0.15553
0.11358
-0.119383
-0.159341
-0.1749
-0.172743
-0.161134
-0.142914
-0.119743
-0.0927603
-0.0625599
-0.0294296
0.00639112
0.0444909
0.0840715
0.123718
0.16115
0.193098
0.215679
0.224086
0.208058
0.160638
-0.188604
-0.232222
-0.243921
-0.233932
-0.213679
-0.187139
-0.156356
-0.122484
-0.0858799
-0.0464537
-0.00399606
0.0415565
0.0898586
0.139844
0.189332
0.234701
0.271084
0.291672
0.281748
0.229777
-0.283947
-0.329283
-0.331813
-0.308264
-0.274693
-0.236424
-0.195748
-0.153593
-0.109822
-0.063727
-0.0144198
0.0388808
0.0965703
0.158291
0.222387
0.285298
0.341406
0.381581
0.384917
0.331833
-0.419291
-0.459649
-0.442333
-0.395777
-0.342115
-0.287726
-0.234601
-0.182914
-0.131593
-0.0789677
-0.0231967
0.0374918
0.104568
0.178851
0.259872
0.344979
0.428623
0.499705
0.529677
0.485388
-0.620506
-0.636724
-0.578661
-0.49418
-0.411229
-0.335647
-0.267768
-0.205964
-0.147521
-0.089367
-0.0284099
0.0383638
0.113821
0.200484
0.299985
0.412033
0.533035
0.651779
0.732772
0.722391
-0.935903
-0.878498
-0.741728
-0.597938
-0.474384
-0.37265
-0.288858
-0.217751
-0.15394
-0.0924495
-0.0287024
0.0417102
0.123277
0.220729
0.338935
0.482161
0.652001
0.841344
1.01527
1.0975
-1.47641
-1.20662
-0.920493
-0.691381
-0.517299
-0.387538
-0.290054
-0.213328
-0.148112
-0.0872025
-0.0245638
0.0454713
0.12895
0.233082
0.367112
0.542685
0.771297
1.05932
1.40329
1.73014
-2.53964
-1.63054
-1.04443
-0.710954
-0.495748
-0.35209
-0.254526
-0.183576
-0.12616
-0.0735835
-0.0192559
0.0428007
0.119226
0.218795
0.354823
0.547992
0.826399
1.23658
1.91168
2.92419
-4.36665
-2.04463
-0.973538
-0.563179
-0.357847
-0.240147
-0.170118
-0.123779
-0.0874741
-0.0534998
-0.0166414
0.0276755
0.084623
0.161745
0.272425
0.442111
0.718228
1.22571
2.41104
4.84853
)
;

boundaryField
{
    movingWall
    {
        type            zeroGradient;
    }
    fixedWalls
    {
        type            zeroGradient;
    }
    frontAndBack
    {
        type            empty;
    }
}


// ************************************************************************* //
