/*--------------------------------*- C++ -*----------------------------------*\
| =========                 |                                                 |
| \\      /  F ield         | OpenFOAM: The Open Source CFD Toolbox           |
|  \\    /   O peration     | Version:  1.7.1                                 |
|   \\  /    A nd           | Web:      www.OpenFOAM.com                      |
|    \\/     M anipulation  |                                                 |
\*---------------------------------------------------------------------------*/
FoamFile
{
    version     2.0;
    format      ascii;
    class       surfaceScalarField;
    location    "0.2";
    object      phi;
}
// * * * * * * * * * * * * * * * * * * * * * * * * * * * * * * * * * * * * * //

dimensions      [0 3 -1 0 0 0 0];

internalField   nonuniform List<scalar> 
760
(
1.4233e-08
-1.42523e-08
-2.221e-08
3.6441e-08
-1.14252e-07
9.20404e-08
-2.45445e-07
1.31194e-07
-3.96013e-07
1.50568e-07
-5.47243e-07
1.5123e-07
-6.83034e-07
1.3579e-07
-7.90479e-07
1.07444e-07
-8.60005e-07
6.95259e-08
-8.85432e-07
2.54266e-08
-8.64115e-07
-2.13167e-08
-7.972e-07
-6.69147e-08
-6.89923e-07
-1.07277e-07
-5.51845e-07
-1.38077e-07
-3.96855e-07
-1.5499e-07
-2.42699e-07
-1.54156e-07
-1.09715e-07
-1.32984e-07
-1.84182e-08
-9.12966e-08
1.56826e-08
-3.4101e-08
1.56823e-08
-3.42065e-08
1.99531e-08
-1.80331e-07
1.82566e-07
-4.33886e-07
3.45594e-07
-7.64248e-07
4.61557e-07
-1.13193e-06
5.18255e-07
-1.49688e-06
5.16172e-07
-1.82289e-06
4.61803e-07
-2.08002e-06
3.64578e-07
-2.24572e-06
2.35223e-07
-2.30547e-06
8.51765e-08
-2.25334e-06
-7.34428e-08
-2.09253e-06
-2.27726e-07
-1.83581e-06
-3.64e-07
-1.50567e-06
-4.68214e-07
-1.1338e-06
-5.26857e-07
-7.59338e-07
-5.28623e-07
-4.253e-07
-4.67022e-07
-1.72654e-07
-3.43943e-07
-3.07972e-08
-1.75958e-07
-1.51153e-08
-9.22018e-08
1.12154e-07
-3.56895e-07
4.47261e-07
-7.64347e-07
7.53044e-07
-1.26814e-06
9.65351e-07
-1.8142e-06
1.06432e-06
-2.34841e-06
1.05038e-06
-2.82168e-06
9.35067e-07
-3.19309e-06
7.35991e-07
-3.4317e-06
4.7383e-07
-3.51758e-06
1.7106e-07
-3.44266e-06
-1.4836e-07
-3.21141e-06
-4.58978e-07
-2.84136e-06
-7.34052e-07
-2.36318e-06
-9.4639e-07
-1.81983e-06
-1.0702e-06
-1.26415e-06
-1.0843e-06
-7.5432e-07
-9.76853e-07
-3.46877e-07
-7.51387e-07
-8.73126e-08
-4.35523e-07
-1.02428e-07
-1.45165e-07
2.57318e-07
-5.25301e-07
8.27398e-07
-1.08131e-06
1.30906e-06
-1.74701e-06
1.63104e-06
-2.45363e-06
1.77095e-06
-3.1355e-06
1.73224e-06
-3.73426e-06
1.53383e-06
-4.20175e-06
1.20349e-06
-4.50169e-06
7.73768e-07
-4.61068e-06
2.80047e-07
-4.51904e-06
-2.39998e-07
-4.2316e-06
-7.46419e-07
-3.76836e-06
-1.19729e-06
-3.16479e-06
-1.54996e-06
-2.47121e-06
-1.76378e-06
-1.75059e-06
-1.80492e-06
-1.07421e-06
-1.65323e-06
-5.14993e-07
-1.31061e-06
-1.39274e-07
-8.11242e-07
-2.41702e-07
-1.93549e-07
4.50867e-07
-6.84796e-07
1.31865e-06
-1.38522e-06
2.00948e-06
-2.20663e-06
2.45245e-06
-3.06463e-06
2.62895e-06
-3.88273e-06
2.55034e-06
-4.59528e-06
2.24638e-06
-5.14923e-06
1.75743e-06
-5.50501e-06
1.12955e-06
-5.63707e-06
4.121e-07
-5.53433e-06
-3.4273e-07
-5.20105e-06
-1.07971e-06
-4.6577e-06
-1.74064e-06
-3.94195e-06
-2.2657e-06
-3.10891e-06
-2.59682e-06
-2.22992e-06
-2.68391e-06
-1.38927e-06
-2.49388e-06
-6.78315e-07
-2.02156e-06
-1.87714e-07
-1.30184e-06
-4.29416e-07
-2.39874e-07
6.9074e-07
-8.40127e-07
1.9189e-06
-1.68286e-06
2.85222e-06
-2.6564e-06
3.42599e-06
-3.65995e-06
3.63251e-06
-4.60667e-06
3.49707e-06
-5.42508e-06
3.06478e-06
-6.05917e-06
2.39152e-06
-6.46788e-06
1.53826e-06
-6.62455e-06
5.68776e-07
-6.51686e-06
-4.50423e-07
-6.14743e-06
-1.44913e-06
-5.53532e-06
-2.35276e-06
-4.71789e-06
-3.08313e-06
-3.75263e-06
-3.56208e-06
-2.71787e-06
-3.71867e-06
-1.71115e-06
-3.50061e-06
-8.44464e-07
-2.88825e-06
-2.36121e-07
-1.91019e-06
-6.65536e-07
-2.86681e-07
9.7742e-07
-9.96876e-07
2.6291e-06
-1.98168e-06
3.83702e-06
-3.10433e-06
4.54864e-06
-4.24713e-06
4.77531e-06
-5.31381e-06
4.56374e-06
-6.22894e-06
3.97992e-06
-6.93588e-06
3.09846e-06
-7.39413e-06
1.99651e-06
-7.57725e-06
7.51894e-07
-7.47182e-06
-5.55848e-07
-7.07786e-06
-1.84309e-06
-6.41076e-06
-3.01986e-06
-5.50463e-06
-3.98927e-06
-4.4163e-06
-4.65041e-06
-3.22881e-06
-4.90616e-06
-2.05259e-06
-4.67682e-06
-1.02235e-06
-3.91849e-06
-2.88226e-07
-2.64431e-06
-9.53761e-07
-3.36279e-07
1.3137e-06
-1.1602e-06
3.45302e-06
-2.28769e-06
4.96451e-06
-3.5545e-06
5.81545e-06
-4.82596e-06
6.04676e-06
-5.99825e-06
5.73603e-06
-6.99509e-06
4.97676e-06
-7.76248e-06
3.86585e-06
-8.26339e-06
2.49741e-06
-8.4735e-06
9.62009e-07
-8.37888e-06
-6.50471e-07
-7.97588e-06
-2.24609e-06
-7.27366e-06
-3.72207e-06
-6.29917e-06
-4.96376e-06
-5.10405e-06
-5.84553e-06
-3.77207e-06
-6.23814e-06
-2.42459e-06
-6.02431e-06
-1.22059e-06
-5.12248e-06
-3.47662e-07
-3.51724e-06
-1.30142e-06
-3.90924e-07
1.70462e-06
-1.33478e-06
4.39687e-06
-2.60476e-06
6.2345e-06
-4.00562e-06
7.21631e-06
-5.38638e-06
7.42752e-06
-6.63922e-06
6.98887e-06
-7.69181e-06
6.02936e-06
-8.49778e-06
4.67182e-06
-9.02769e-06
3.02732e-06
-9.26219e-06
1.1965e-06
-9.18793e-06
-7.24728e-07
-8.79681e-06
-2.63722e-06
-8.08876e-06
-4.43012e-06
-7.0785e-06
-5.97402e-06
-5.8059e-06
-7.11813e-06
-4.34873e-06
-7.69531e-06
-2.83461e-06
-7.53843e-06
-1.44699e-06
-6.51011e-06
-4.18067e-07
-4.54616e-06
-1.71949e-06
-4.53443e-07
2.15806e-06
-1.52565e-06
5.46907e-06
-2.93481e-06
7.64367e-06
-4.45001e-06
8.7315e-06
-5.90618e-06
8.8837e-06
-7.19763e-06
8.28032e-06
-8.26345e-06
7.09517e-06
-9.07183e-06
5.4802e-06
-9.60662e-06
3.56211e-06
-9.85734e-06
1.44722e-06
-9.81317e-06
-7.68897e-07
-9.46114e-06
-2.98925e-06
-8.78888e-06
-5.10237e-06
-7.7928e-06
-6.9701e-06
-6.49204e-06
-8.41889e-06
-4.94784e-06
-9.23951e-06
-3.28503e-06
-9.20125e-06
-1.70863e-06
-8.0865e-06
-5.03572e-07
-5.75122e-06
-2.22306e-06
-5.28349e-07
2.68641e-06
-1.7397e-06
6.68043e-06
-3.27805e-06
9.18202e-06
-4.87174e-06
1.03252e-05
-6.34716e-06
1.03591e-05
-7.611e-06
9.54416e-06
-8.62455e-06
8.10873e-06
-9.37989e-06
6.23555e-06
-9.88121e-06
4.06342e-06
-1.01317e-05
1.69776e-06
-1.0126e-05
-7.74659e-07
-9.84651e-06
-3.26872e-06
-9.26614e-06
-5.68275e-06
-8.35645e-06
-7.87978e-06
-7.10478e-06
-9.67056e-06
-5.54076e-06
-1.08035e-05
-3.77074e-06
-1.09713e-05
-2.01218e-06
-9.84506e-06
-6.09691e-07
-7.15371e-06
-2.83275e-06
-6.23703e-07
3.31012e-06
-1.9875e-06
8.04422e-06
-3.63213e-06
1.08266e-05
-5.24226e-06
1.19353e-05
-6.648e-06
1.17649e-05
-7.785e-06
1.06812e-05
-8.65161e-06
8.97534e-06
-9.27496e-06
6.85889e-06
-9.68721e-06
4.47568e-06
-9.9105e-06
1.92104e-06
-9.94789e-06
-7.37265e-07
-9.77919e-06
-3.43742e-06
-9.36142e-06
-6.10052e-06
-8.63606e-06
-8.60515e-06
-7.54673e-06
-1.07599e-05
-6.07183e-06
-1.22784e-05
-4.27442e-06
-1.27687e-05
-2.36372e-06
-1.17558e-05
-7.44797e-07
-8.77263e-06
-3.57755e-06
-7.54132e-07
4.06425e-06
-2.28453e-06
9.57462e-06
-3.98734e-06
1.25295e-05
-5.5096e-06
1.34576e-05
-6.71028e-06
1.29655e-05
-7.57938e-06
1.15503e-05
-8.17099e-06
9.56696e-06
-8.55865e-06
7.24655e-06
-8.80881e-06
4.72584e-06
-8.96614e-06
2.07838e-06
-9.04542e-06
-6.5798e-07
-9.02673e-06
-3.45611e-06
-8.85347e-06
-6.27378e-06
-8.43556e-06
-9.02306e-06
-7.66349e-06
-1.1532e-05
-6.44242e-06
-1.34995e-05
-4.75652e-06
-1.44546e-05
-2.76688e-06
-1.37454e-05
-9.22471e-07
-1.0617e-05
-4.50002e-06
-9.45273e-07
5.00952e-06
-2.64871e-06
1.12781e-05
-4.3114e-06
1.41922e-05
-5.57391e-06
1.47201e-05
-6.3715e-06
1.37631e-05
-6.78427e-06
1.1963e-05
-6.94163e-06
9.72432e-06
-6.97097e-06
7.27589e-06
-6.97408e-06
4.72894e-06
-7.01781e-06
2.12211e-06
-7.12988e-06
-5.45915e-07
-7.29495e-06
-3.29103e-06
-7.4497e-06
-6.11903e-06
-7.47879e-06
-8.99397e-06
-7.21866e-06
-1.17921e-05
-6.48327e-06
-1.42349e-05
-5.13377e-06
-1.58041e-05
-3.21515e-06
-1.5664e-05
-1.16443e-06
-1.26678e-05
-5.66446e-06
-1.23738e-06
6.24691e-06
-3.08351e-06
1.31242e-05
-4.50813e-06
1.56168e-05
-5.23512e-06
1.54471e-05
-5.35607e-06
1.38841e-05
-5.08288e-06
1.16898e-05
-4.63211e-06
9.27355e-06
-4.1806e-06
6.82438e-06
-3.85577e-06
4.40411e-06
-3.73845e-06
2.00479e-06
-3.86652e-06
-4.17843e-07
-4.23395e-06
-2.92361e-06
-4.78326e-06
-5.56972e-06
-5.39207e-06
-8.38516e-06
-5.85929e-06
-1.13249e-05
-5.90716e-06
-1.4187e-05
-5.23319e-06
-1.64781e-05
-3.66646e-06
-1.72307e-05
-1.50013e-06
-1.48341e-05
-7.16459e-06
-1.67387e-06
7.92077e-06
-3.51356e-06
1.49639e-05
-4.31568e-06
1.64189e-05
-4.08946e-06
1.52208e-05
-3.19385e-06
1.29885e-05
-1.99974e-06
1.04957e-05
-7.96311e-07
8.07012e-06
2.18039e-07
5.81003e-06
9.16853e-07
3.7053e-06
1.2242e-06
1.69745e-06
1.10068e-06
-2.94329e-07
5.39763e-07
-2.36269e-06
-4.24097e-07
-4.60586e-06
-1.69356e-06
-7.11569e-06
-3.07321e-06
-9.94524e-06
-4.2314e-06
-1.30288e-05
-4.69602e-06
-1.60134e-05
-3.96737e-06
-1.79594e-05
-1.94498e-06
-1.68565e-05
-9.10957e-06
-2.23073e-06
1.01515e-05
-3.59044e-06
1.63236e-05
-3.07808e-06
1.59065e-05
-1.34435e-06
1.34871e-05
8.9637e-07
1.07477e-05
3.15412e-06
8.23797e-06
5.13711e-06
6.08714e-06
6.68756e-06
4.25958e-06
7.72463e-06
2.66824e-06
8.20531e-06
1.21676e-06
8.10267e-06
-1.91686e-07
7.39789e-06
-1.65791e-06
6.08583e-06
-3.2938e-06
4.1983e-06
-5.22817e-06
1.85345e-06
-7.60038e-06
-6.6223e-07
-1.05131e-05
-2.79251e-06
-1.38832e-05
-3.66226e-06
-1.70896e-05
-2.41159e-06
-1.81071e-05
-1.15212e-05
-2.57383e-06
1.27253e-05
-2.18354e-06
1.59333e-05
7.17881e-07
1.30051e-05
4.46924e-06
9.73576e-06
8.13281e-06
7.08417e-06
1.13009e-05
5.06984e-06
1.38283e-05
3.55975e-06
1.56872e-05
2.40068e-06
1.68907e-05
1.46473e-06
1.74539e-05
6.5358e-07
1.73754e-05
-1.13183e-07
1.66296e-05
-9.12097e-07
1.51664e-05
-1.83057e-06
1.29228e-05
-2.98462e-06
9.86122e-06
-4.53876e-06
6.06158e-06
-6.7135e-06
1.91209e-06
-9.73368e-06
-1.55975e-06
-1.36178e-05
-2.45837e-06
-1.72085e-05
-1.39795e-05
-7.85011e-07
1.35103e-05
4.08077e-06
1.10675e-05
1.02975e-05
6.78841e-06
1.57935e-05
4.23976e-06
2.01578e-05
2.71987e-06
2.34577e-05
1.7699e-06
2.58604e-05
1.1571e-06
2.7521e-05
7.40024e-07
2.85535e-05
4.32276e-07
2.90258e-05
1.81216e-07
2.89616e-05
-4.89745e-08
2.83382e-05
-2.88682e-07
2.70814e-05
-5.73715e-07
2.50547e-05
-9.57925e-07
2.20514e-05
-1.53549e-06
1.78153e-05
-2.47738e-06
1.21722e-05
-4.09065e-06
5.47766e-06
-6.92322e-06
-1.29185e-07
-1.16017e-05
-1.41087e-05
1.35103e-05
2.45779e-05
3.13663e-05
3.5606e-05
3.83259e-05
4.00958e-05
4.12529e-05
4.19929e-05
4.24252e-05
4.26064e-05
4.25574e-05
4.22688e-05
4.1695e-05
4.07371e-05
3.92016e-05
3.67243e-05
3.26336e-05
2.57104e-05
1.41087e-05
)
;

boundaryField
{
    movingWall
    {
        type            calculated;
        value           uniform 0;
    }
    fixedWalls
    {
        type            calculated;
        value           uniform 0;
    }
    frontAndBack
    {
        type            empty;
    }
}


// ************************************************************************* //
