/*--------------------------------*- C++ -*----------------------------------*\
| =========                 |                                                 |
| \\      /  F ield         | OpenFOAM: The Open Source CFD Toolbox           |
|  \\    /   O peration     | Version:  1.7.1                                 |
|   \\  /    A nd           | Web:      www.OpenFOAM.com                      |
|    \\/     M anipulation  |                                                 |
\*---------------------------------------------------------------------------*/
FoamFile
{
    version     2.0;
    format      ascii;
    class       volVectorField;
    location    "0.2";
    object      U;
}
// * * * * * * * * * * * * * * * * * * * * * * * * * * * * * * * * * * * * * //

dimensions      [0 1 -1 0 0 0 0];

internalField   nonuniform List<vector> 
400
(
(0.000253382 -0.000250245 0)
(0.000141171 0.000111502 0)
(-0.00117685 0.000564523 0)
(-0.00348047 0.000884797 0)
(-0.00637613 0.00104547 0)
(-0.00946736 0.00106149 0)
(-0.0124001 0.000957613 0)
(-0.0148815 0.00076025 0)
(-0.0166856 0.00049452 0)
(-0.0176542 0.00018451 0)
(-0.0176981 -0.00014524 0)
(-0.0168012 -0.000468261 0)
(-0.0150267 -0.000755241 0)
(-0.0125223 -0.000974039 0)
(-0.00952429 -0.00109094 0)
(-0.00635364 -0.00107377 0)
(-0.0034 -0.000897929 0)
(-0.00108632 -0.000556292 0)
(0.000196282 -9.0393e-05 0)
(0.000267763 0.000262283 0)
(-7.74377e-05 -0.000169089 0)
(-0.00161117 0.00164463 0)
(-0.00569154 0.00361654 0)
(-0.011716 0.00503366 0)
(-0.0188877 0.00574186 0)
(-0.0263943 0.00575881 0)
(-0.033461 0.00517042 0)
(-0.0394172 0.00409152 0)
(-0.0437334 0.00264699 0)
(-0.046036 0.000966689 0)
(-0.0461183 -0.000813032 0)
(-0.0439508 -0.00254647 0)
(-0.0396917 -0.00407767 0)
(-0.0336947 -0.00524386 0)
(-0.0265071 -0.00588518 0)
(-0.0188501 -0.00586349 0)
(-0.011564 -0.0050936 0)
(-0.00551207 -0.00358865 0)
(-0.00149281 -0.00155889 0)
(-4.26012e-05 0.000227297 0)
(-0.00052845 0.00109153 0)
(-0.00371034 0.00573504 0)
(-0.010586 0.010222 0)
(-0.0199864 0.0134044 0)
(-0.0307567 0.0149426 0)
(-0.0418114 0.0148352 0)
(-0.0521065 0.0132524 0)
(-0.0607288 0.0104536 0)
(-0.0669525 0.00674035 0)
(-0.0702651 0.0024383 0)
(-0.0703831 -0.00210599 0)
(-0.0672676 -0.00652383 0)
(-0.0611372 -0.0104266 0)
(-0.0524754 -0.0134178 0)
(-0.0420266 -0.0151198 0)
(-0.0307662 -0.0152219 0)
(-0.0198241 -0.0135527 0)
(-0.0103609 -0.0101765 0)
(-0.0035476 -0.00554984 0)
(-0.000476722 -0.000948725 0)
(-0.000927922 0.00347901 0)
(-0.00568979 0.0122175 0)
(-0.0152974 0.0199166 0)
(-0.0279092 0.0251914 0)
(-0.0419742 0.02759 0)
(-0.0561643 0.0271307 0)
(-0.0692341 0.0241029 0)
(-0.0801052 0.0189492 0)
(-0.087926 0.0121926 0)
(-0.0920957 0.00440409 0)
(-0.0922804 -0.00380689 0)
(-0.0884282 -0.0117935 0)
(-0.0807849 -0.0188773 0)
(-0.0699056 -0.0243702 0)
(-0.0566551 -0.0276207 0)
(-0.0421842 -0.0280948 0)
(-0.0278495 -0.0254913 0)
(-0.0150897 -0.0198867 0)
(-0.00550353 -0.0119247 0)
(-0.00086134 -0.00322412 0)
(-0.00127852 0.0068759 0)
(-0.00753386 0.020948 0)
(-0.0197994 0.0325018 0)
(-0.0355256 0.0400928 0)
(-0.05273 0.0432792 0)
(-0.0698412 0.0421821 0)
(-0.0854425 0.0372682 0)
(-0.0983369 0.0292058 0)
(-0.107594 0.0187727 0)
(-0.112562 0.00681229 0)
(-0.112871 -0.00577863 0)
(-0.108449 -0.0180499 0)
(-0.0995392 -0.0290039 0)
(-0.0867192 -0.0376232 0)
(-0.0709193 -0.0429342 0)
(-0.0534177 -0.0441178 0)
(-0.035776 -0.0406685 0)
(-0.0197303 -0.0325842 0)
(-0.00736867 -0.0205853 0)
(-0.00120332 -0.00649645 0)
(-0.00160706 0.0112124 0)
(-0.00931562 0.0318659 0)
(-0.0242034 0.0479391 0)
(-0.0429926 0.0580569 0)
(-0.0632426 0.0619214 0)
(-0.0831344 0.0598661 0)
(-0.101102 0.0526152 0)
(-0.115867 0.0411158 0)
(-0.126461 0.0264309 0)
(-0.132209 0.00969099 0)
(-0.132722 -0.00791378 0)
(-0.127896 -0.0251253 0)
(-0.117942 -0.0406144 0)
(-0.103412 -0.0530058 0)
(-0.0852513 -0.0609509 0)
(-0.064822 -0.0632643 0)
(-0.0438762 -0.0591272 0)
(-0.0244723 -0.0483321 0)
(-0.00925218 -0.0315494 0)
(-0.00153735 -0.0107257 0)
(-0.00193959 0.0164725 0)
(-0.0111189 0.0449623 0)
(-0.0286446 0.0662163 0)
(-0.05047 0.0790395 0)
(-0.073671 0.0834257 0)
(-0.0961858 0.0800546 0)
(-0.11633 0.0700075 0)
(-0.13279 0.054572 0)
(-0.144605 0.0351238 0)
(-0.151114 0.0130823 0)
(-0.151922 -0.0100831 0)
(-0.14689 -0.0328238 0)
(-0.136158 -0.053486 0)
(-0.120202 -0.0703194 0)
(-0.0999156 -0.0815455 0)
(-0.0766883 -0.0855122 0)
(-0.0524311 -0.0809443 0)
(-0.0295396 -0.0672608 0)
(-0.0112815 -0.0449285 0)
(-0.00189968 -0.0159475 0)
(-0.00229964 0.022689 0)
(-0.013023 0.0602859 0)
(-0.0332459 0.0873425 0)
(-0.0580713 0.102972 0)
(-0.0840627 0.10764 0)
(-0.108938 0.102538 0)
(-0.130949 0.0892239 0)
(-0.148814 0.0693955 0)
(-0.161644 0.0447623 0)
(-0.168845 0.0170171 0)
(-0.17004 -0.0121294 0)
(-0.16505 -0.0408826 0)
(-0.15391 -0.067298 0)
(-0.136952 -0.0892523 0)
(-0.114928 -0.104488 0)
(-0.0891646 -0.110772 0)
(-0.0616629 -0.106189 0)
(-0.0351438 -0.0895595 0)
(-0.013584 -0.0609357 0)
(-0.00232599 -0.0222723 0)
(-0.00271138 0.02994 0)
(-0.0151066 0.0779391 0)
(-0.0381113 0.111332 0)
(-0.0658426 0.129722 0)
(-0.0943186 0.134289 0)
(-0.121088 0.126947 0)
(-0.144431 0.109879 0)
(-0.163199 0.0852643 0)
(-0.176672 0.0551565 0)
(-0.184391 0.0214839 0)
(-0.186042 -0.0138701 0)
(-0.181407 -0.0489446 0)
(-0.170381 -0.0815749 0)
(-0.153068 -0.1093 0)
(-0.129961 -0.129354 0)
(-0.102178 -0.1388 0)
(-0.0716839 -0.13486 0)
(-0.0414637 -0.115446 0)
(-0.0162867 -0.0798794 0)
(-0.00285444 -0.0298834 0)
(-0.00320757 0.0383519 0)
(-0.0174657 0.0980705 0)
(-0.0433398 0.138163 0)
(-0.0737545 0.159016 0)
(-0.104157 0.16287 0)
(-0.132028 0.152644 0)
(-0.155821 0.131317 0)
(-0.174673 0.101622 0)
(-0.188162 0.0659463 0)
(-0.196062 0.0263863 0)
(-0.19818 -0.0151077 0)
(-0.194277 -0.0565326 0)
(-0.184076 -0.0956223 0)
(-0.167361 -0.129664 0)
(-0.144211 -0.155395 0)
(-0.115335 -0.169067 0)
(-0.0824432 -0.166774 0)
(-0.0486345 -0.145099 0)
(-0.0195281 -0.102142 0)
(-0.00353344 -0.0390405 0)
(-0.00384407 0.0481209 0)
(-0.0202467 0.120874 0)
(-0.0490478 0.167725 0)
(-0.0816884 0.190336 0)
(-0.113056 0.192526 0)
(-0.14075 0.178586 0)
(-0.163626 0.152487 0)
(-0.181313 0.117574 0)
(-0.193851 0.0765235 0)
(-0.201365 0.031491 0)
(-0.203861 -0.0156539 0)
(-0.201114 -0.0630376 0)
(-0.192652 -0.108471 0)
(-0.17786 -0.149145 0)
(-0.156226 -0.181386 0)
(-0.127781 -0.200576 0)
(-0.093645 -0.201395 0)
(-0.0567334 -0.178548 0)
(-0.0234799 -0.128155 0)
(-0.00443554 -0.0500974 0)
(-0.00472567 0.059564 0)
(-0.0236962 0.146599 0)
(-0.0553865 0.199731 0)
(-0.0893823 0.222762 0)
(-0.12013 0.221862 0)
(-0.145686 0.20316 0)
(-0.165643 0.171816 0)
(-0.180385 0.131792 0)
(-0.190596 0.0859588 0)
(-0.196878 0.0363731 0)
(-0.199516 -0.015366 0)
(-0.19835 -0.0677309 0)
(-0.19273 -0.118848 0)
(-0.181585 -0.166054 0)
(-0.163654 -0.20546 0)
(-0.137973 -0.231632 0)
(-0.1046 -0.237597 0)
(-0.0657358 -0.215501 0)
(-0.0283785 -0.15835 0)
(-0.00568222 -0.0635454 0)
(-0.00605204 0.0732221 0)
(-0.0282281 0.175548 0)
(-0.0625141 0.233548 0)
(-0.096266 0.254721 0)
(-0.123869 0.248704 0)
(-0.144414 0.224001 0)
(-0.158689 0.187085 0)
(-0.168128 0.142445 0)
(-0.174224 0.0929586 0)
(-0.178142 0.0403759 0)
(-0.180508 -0.0141945 0)
(-0.181288 -0.0698104 0)
(-0.179715 -0.125194 0)
(-0.174287 -0.178158 0)
(-0.162909 -0.224948 0)
(-0.143327 -0.259561 0)
(-0.113945 -0.273303 0)
(-0.075397 -0.255044 0)
(-0.0345578 -0.193075 0)
(-0.00748655 -0.0800981 0)
(-0.00819261 0.0900415 0)
(-0.0344855 0.208008 0)
(-0.0704188 0.267865 0)
(-0.101034 0.283585 0)
(-0.12159 0.269788 0)
(-0.133127 0.237819 0)
(-0.138186 0.195386 0)
(-0.139488 0.147219 0)
(-0.139395 0.0959002 0)
(-0.139624 0.0426166 0)
(-0.141138 -0.0122298 0)
(-0.144082 -0.0684981 0)
(-0.147694 -0.12578 0)
(-0.150191 -0.182751 0)
(-0.148738 -0.236303 0)
(-0.139657 -0.280424 0)
(-0.119104 -0.305004 0)
(-0.0849411 -0.29514 0)
(-0.0424425 -0.232364 0)
(-0.0102164 -0.100832 0)
(-0.011768 0.111632 0)
(-0.0432625 0.243952 0)
(-0.078304 0.30002 0)
(-0.100639 0.305075 0)
(-0.108367 0.280442 0)
(-0.105751 0.240365 0)
(-0.0975534 0.193266 0)
(-0.087798 0.143537 0)
(-0.0795302 0.0930283 0)
(-0.0748156 0.0420923 0)
(-0.0748331 -0.0097265 0)
(-0.0799197 -0.0632042 0)
(-0.0894894 -0.118979 0)
(-0.101812 -0.176943 0)
(-0.113705 -0.235268 0)
(-0.12032 -0.288864 0)
(-0.115273 -0.327179 0)
(-0.0922721 -0.331779 0)
(-0.0523179 -0.275393 0)
(-0.0144307 -0.127343 0)
(-0.0175498 0.140657 0)
(-0.054767 0.282139 0)
(-0.0827922 0.324709 0)
(-0.0880906 0.312462 0)
(-0.0751231 0.274443 0)
(-0.0526099 0.226757 0)
(-0.0274813 0.177277 0)
(-0.00454058 0.129126 0)
(0.0130705 0.082907 0)
(0.0234105 0.0379448 0)
(0.0253691 -0.00707197 0)
(0.0184792 -0.0537536 0)
(0.00295383 -0.103744 0)
(-0.0200197 -0.15831 0)
(-0.0477047 -0.21749 0)
(-0.0749991 -0.278348 0)
(-0.0935565 -0.331779 0)
(-0.0920693 -0.357672 0)
(-0.0632827 -0.319287 0)
(-0.020634 -0.161971 0)
(-0.02545 0.18171 0)
(-0.0657763 0.317768 0)
(-0.0733375 0.331357 0)
(-0.048085 0.295393 0)
(-0.00559014 0.244203 0)
(0.0412027 0.192372 0)
(0.0846337 0.145039 0)
(0.120514 0.102966 0)
(0.146677 0.065134 0)
(0.162022 0.0298899 0)
(0.165916 -0.00467062 0)
(0.157911 -0.0406253 0)
(0.137709 -0.0802415 0)
(0.10542 -0.125911 0)
(0.0622455 -0.179719 0)
(0.0117929 -0.242012 0)
(-0.0378387 -0.30787 0)
(-0.0716844 -0.360136 0)
(-0.0700575 -0.356604 0)
(-0.0279126 -0.208373 0)
(-0.0296491 0.239176 0)
(-0.0608421 0.335766 0)
(-0.0219451 0.3005 0)
(0.0505366 0.240123 0)
(0.127564 0.182944 0)
(0.196996 0.135385 0)
(0.254322 0.0973948 0)
(0.298233 0.0668478 0)
(0.328806 0.0413532 0)
(0.346447 0.0187778 0)
(0.351356 -0.00279362 0)
(0.343283 -0.0252634 0)
(0.321451 -0.050785 0)
(0.284627 -0.0820446 0)
(0.231559 -0.122442 0)
(0.162171 -0.175665 0)
(0.0798939 -0.243427 0)
(-0.00319364 -0.319133 0)
(-0.054671 -0.36861 0)
(-0.0284596 -0.267617 0)
(0.0080832 0.281862 0)
(0.019783 0.294972 0)
(0.139065 0.210972 0)
(0.264457 0.143476 0)
(0.364363 0.0971842 0)
(0.440357 0.0657757 0)
(0.496734 0.0442359 0)
(0.536863 0.0288847 0)
(0.563434 0.0171981 0)
(0.578293 0.00748454 0)
(0.582367 -0.00149385 0)
(0.575683 -0.0108445 0)
(0.557297 -0.021846 0)
(0.525125 -0.0363336 0)
(0.475769 -0.0572581 0)
(0.404531 -0.0893826 0)
(0.305172 -0.13974 0)
(0.173415 -0.216385 0)
(0.0411713 -0.311654 0)
(0.0184301 -0.299995 0)
(0.299604 0.146091 0)
(0.396272 0.127503 0)
(0.55742 0.0760894 0)
(0.674487 0.043723 0)
(0.743887 0.0255718 0)
(0.787151 0.0152419 0)
(0.815482 0.00921205 0)
(0.833951 0.0055092 0)
(0.845381 0.00302706 0)
(0.851367 0.00114933 0)
(0.852661 -0.000499308 0)
(0.849378 -0.00221492 0)
(0.840996 -0.00433835 0)
(0.826137 -0.00742384 0)
(0.802076 -0.012532 0)
(0.763619 -0.0217726 0)
(0.699107 -0.0392827 0)
(0.583952 -0.07266 0)
(0.415827 -0.127868 0)
(0.308819 -0.149468 0)
)
;

boundaryField
{
    movingWall
    {
        type            fixedValue;
        value           uniform (1 0 0);
    }
    fixedWalls
    {
        type            fixedValue;
        value           uniform (0 0 0);
    }
    frontAndBack
    {
        type            empty;
    }
}


// ************************************************************************* //
