/*--------------------------------*- C++ -*----------------------------------*\
| =========                 |                                                 |
| \\      /  F ield         | OpenFOAM: The Open Source CFD Toolbox           |
|  \\    /   O peration     | Version:  1.7.1                                 |
|   \\  /    A nd           | Web:      www.OpenFOAM.com                      |
|    \\/     M anipulation  |                                                 |
\*---------------------------------------------------------------------------*/
FoamFile
{
    version     2.0;
    format      ascii;
    class       volScalarField;
    location    "2000";
    object      alphat;
}
// * * * * * * * * * * * * * * * * * * * * * * * * * * * * * * * * * * * * * //

dimensions      [1 -1 -1 0 0 0 0];

internalField   nonuniform List<scalar> 
4000
(
0.000102409
0.000101213
0.000100895
9.83968e-05
9.61909e-05
9.40002e-05
9.12726e-05
8.91198e-05
8.90777e-05
8.99155e-05
9.02382e-05
9.08862e-05
9.24431e-05
9.42307e-05
9.63065e-05
9.89616e-05
0.00010116
0.0001038
0.000104018
0.000102406
0.000151719
0.000128204
0.000128878
0.000127345
0.000123828
0.000117349
0.000115335
0.000114305
0.000114334
0.000115691
0.000115226
0.000114307
0.000114644
0.000115435
0.000119565
0.000126402
0.000129683
0.000131768
0.000131518
0.000138157
0.000297485
0.000265627
0.000218712
0.000167589
0.000145926
0.000145041
0.000145061
0.000144066
0.000143391
0.00014551
0.000144109
0.000141855
0.000142265
0.000143411
0.000145647
0.000146882
0.000158636
0.000210957
0.000258473
0.000287888
0.000342978
0.000330119
0.000308175
0.000278759
0.000245724
0.00021189
0.000168542
0.000160423
0.000162992
0.000166938
0.000165193
0.000160984
0.000159513
0.000160613
0.000206175
0.000243875
0.000279743
0.000307617
0.000326421
0.000337795
0.000364778
0.000359062
0.000344647
0.00032441
0.000298967
0.000272157
0.000251178
0.00022621
0.000202226
0.000191106
0.000189158
0.000191628
0.000217894
0.000250081
0.000271465
0.000297647
0.00032286
0.000342463
0.000355448
0.000359998
0.000379182
0.0003817
0.000376888
0.00036757
0.00035769
0.000348343
0.000338703
0.000328279
0.000318285
0.000308985
0.000305771
0.000312937
0.00032346
0.00033508
0.000345775
0.000355407
0.000365585
0.000374078
0.000377663
0.000374425
0.000390875
0.000402324
0.000408926
0.000412766
0.000415168
0.00041587
0.000413959
0.000409202
0.000401584
0.000391813
0.000390836
0.000400576
0.000407718
0.000412122
0.000413734
0.000412692
0.000409901
0.000405434
0.000397974
0.000386137
0.000402572
0.000422915
0.000439911
0.000453144
0.000463339
0.000470263
0.000473352
0.000472076
0.000465682
0.000454357
0.000454271
0.00046627
0.000471991
0.000472491
0.000468687
0.000461081
0.000450205
0.000436225
0.000418446
0.000397946
0.000415843
0.000445684
0.000471326
0.000491795
0.000508132
0.000520276
0.000527668
0.000529501
0.000524146
0.00051075
0.000511234
0.000525507
0.000530119
0.000527445
0.000519267
0.000506347
0.000489225
0.000467951
0.000441512
0.000411414
0.000433064
0.000473245
0.00050676
0.000532817
0.000553745
0.000570157
0.000581984
0.000588369
0.000587344
0.000575702
0.000576693
0.000588883
0.000589284
0.000582186
0.000569651
0.000552509
0.00053079
0.000503875
0.000469522
0.000428919
0.000101213
0.00011366
0.000117931
0.000119272
0.000118466
0.000115424
0.00011155
0.000107827
0.000106955
0.000108237
0.00010872
0.000109908
0.000113059
0.000116575
0.000119622
0.000122765
0.00012301
0.00012052
0.00011616
0.000102662
0.000128204
0.000245644
0.000282454
0.000305231
0.000342799
0.000339289
0.000342851
0.000347587
0.000351906
0.000364528
0.000362066
0.000351558
0.000348843
0.000342432
0.000344559
0.000345557
0.000300812
0.000268309
0.000248239
0.000131073
0.000265627
0.000279323
0.000263483
0.000306375
0.000405933
0.000379432
0.000366213
0.000392054
0.000409599
0.000431762
0.000422748
0.000391707
0.000371728
0.000343118
0.000346516
0.000389957
0.000312167
0.000253776
0.000264478
0.00025436
0.000330119
0.000429525
0.000410994
0.000372418
0.00035588
0.000341686
0.000355677
0.000394717
0.000386589
0.000414017
0.000410478
0.000364776
0.000364669
0.000346405
0.000333073
0.000350882
0.00037034
0.000403762
0.000416426
0.000324018
0.000359062
0.00045191
0.000458113
0.000430888
0.000385023
0.000347099
0.00032377
0.000311291
0.000313726
0.000381509
0.000395469
0.000313792
0.000305601
0.00031807
0.000340889
0.00038027
0.000426316
0.000451884
0.00044437
0.000353439
0.0003817
0.000479009
0.000496619
0.000485456
0.000458934
0.000415234
0.000376563
0.000343124
0.000320547
0.000316595
0.000312164
0.000308828
0.000330391
0.000366165
0.000407924
0.000451996
0.000480302
0.000490952
0.000472366
0.00037656
0.000402324
0.00051021
0.000542419
0.000555126
0.000560267
0.00054701
0.000501855
0.000448011
0.000402162
0.000377822
0.000371595
0.000388422
0.000432632
0.000490031
0.000535974
0.000550982
0.000547444
0.000535447
0.000503625
0.00039773
0.000422915
0.000541536
0.000588108
0.000623344
0.000660577
0.00068707
0.000692581
0.000675427
0.000636435
0.000582959
0.00057666
0.000630262
0.000667016
0.000682092
0.000675855
0.000649876
0.000614304
0.000580225
0.000534883
0.000418838
0.000445684
0.000565429
0.000625758
0.000675905
0.000723024
0.000759042
0.000774159
0.000765961
0.000726814
0.00065563
0.000655555
0.000729784
0.000765551
0.000771293
0.000754697
0.000717602
0.00067016
0.000620139
0.000558945
0.000441897
0.000473245
0.000517081
0.000555101
0.000586225
0.000612452
0.000634077
0.000650607
0.00066069
0.000661786
0.000651098
0.000652417
0.000663595
0.00066196
0.000651239
0.000634086
0.000611827
0.000584911
0.000553048
0.000514301
0.000470012
0.000100895
0.000117931
0.000125379
0.000130281
0.000129947
0.000126801
0.000123442
0.000120307
0.000119726
0.000121412
0.000121669
0.000122284
0.000124973
0.000128368
0.000131399
0.000134102
0.000134352
0.000128404
0.000119746
0.000102488
0.000128878
0.000282453
0.000332366
0.000380079
0.000413829
0.000407941
0.000415663
0.000427974
0.000445994
0.000467381
0.000462508
0.000440316
0.00042454
0.000414742
0.000412933
0.000410829
0.000377967
0.000322864
0.000274477
0.000132559
0.000218711
0.000263483
0.000306953
0.000408982
0.000486439
0.000449064
0.000445954
0.000469562
0.000496134
0.000527094
0.000517178
0.000475395
0.000447662
0.000425139
0.000419595
0.00045879
0.000417571
0.000317231
0.000257553
0.00020493
0.000308175
0.000410994
0.000414504
0.000408602
0.000418415
0.000426579
0.00045648
0.000472774
0.000465296
0.000493586
0.000487985
0.000444343
0.000440992
0.000438859
0.000417805
0.00041138
0.000405299
0.000409198
0.000399861
0.0003023
0.000344647
0.000458113
0.000481289
0.000460187
0.000426882
0.000401024
0.000389134
0.00039321
0.000420521
0.000463042
0.000463167
0.000417509
0.000388119
0.000382595
0.000393413
0.00041983
0.000453994
0.000473293
0.000448737
0.000338209
0.000376888
0.000496619
0.000528841
0.000519611
0.000481568
0.000440003
0.000404679
0.000376004
0.000356831
0.000357418
0.000356329
0.000346942
0.000364112
0.000393831
0.000430676
0.000473603
0.000512395
0.000521259
0.000488327
0.000371124
0.000408926
0.000542419
0.000589395
0.000599775
0.000582582
0.000542803
0.000497227
0.000450302
0.000407419
0.000379131
0.000370987
0.000389052
0.000430426
0.000481182
0.000530094
0.000572164
0.000590681
0.000580918
0.000534548
0.000404318
0.000439911
0.000588108
0.000664151
0.000715987
0.000750193
0.000745772
0.000720726
0.000687584
0.000641741
0.000578854
0.000571318
0.000622976
0.000665601
0.000700274
0.000728812
0.000735341
0.000704218
0.000654264
0.000579904
0.000436065
0.000471326
0.000625758
0.000765603
0.000902904
0.00102245
0.00111032
0.00115154
0.00115511
0.00111797
0.00101861
0.00101865
0.00111529
0.00114873
0.00114346
0.00110228
0.00101301
0.000892623
0.000755638
0.000617111
0.000467887
0.00050676
0.000555101
0.000596968
0.000632124
0.000662448
0.000688199
0.00070859
0.000721916
0.000725063
0.000714582
0.000716137
0.000726956
0.000723253
0.000709339
0.000688405
0.0006621
0.000631161
0.000595365
0.00055289
0.000504036
9.83968e-05
0.000119272
0.000130281
0.000135614
0.000135093
0.000133324
0.00013128
0.000129361
0.000129744
0.000132349
0.000132347
0.000131883
0.000133467
0.000135945
0.000138092
0.000139605
0.000139735
0.000134778
0.000122901
0.000100473
0.000127345
0.000305232
0.000380079
0.000428395
0.000438768
0.000441209
0.000455724
0.000474117
0.000503578
0.000532544
0.000527215
0.000496135
0.000471443
0.000458411
0.000451189
0.000443499
0.000429806
0.000397768
0.000322507
0.000131904
0.000167588
0.000306376
0.000408983
0.000500284
0.000509729
0.000479778
0.00049812
0.0005199
0.000552758
0.000588566
0.000581564
0.000534969
0.000502495
0.00048239
0.000465515
0.000475427
0.000493217
0.000443546
0.000347486
0.000155977
0.000278759
0.000372419
0.000408602
0.000437094
0.000465671
0.000488464
0.000518737
0.00051958
0.000522776
0.00055084
0.000547128
0.000503741
0.000491345
0.00049647
0.000483901
0.000460926
0.000434614
0.00040842
0.000369155
0.000272726
0.000324409
0.000430888
0.000460187
0.000457067
0.000447073
0.000440054
0.000444012
0.000463394
0.000493856
0.000517576
0.000517456
0.000485515
0.000458442
0.000440769
0.000434552
0.000440408
0.000450451
0.000452315
0.000421407
0.00031747
0.000367569
0.000485455
0.000519611
0.00051309
0.000486397
0.000458072
0.000435645
0.000420686
0.000418418
0.000443708
0.000452026
0.000415578
0.000412089
0.000426631
0.000449157
0.000477898
0.000504531
0.00051027
0.000475757
0.000361519
0.000412766
0.000555125
0.000599775
0.00060264
0.000583705
0.000554181
0.000522508
0.000491669
0.000463217
0.000446908
0.000439219
0.000445327
0.000472532
0.000506758
0.000541725
0.000573517
0.000593074
0.000590648
0.000547187
0.000408256
0.000453144
0.000623344
0.000715987
0.000776775
0.000806979
0.000804818
0.000784055
0.000754686
0.000709769
0.00064854
0.000639134
0.000687945
0.000730655
0.000762728
0.000787391
0.000792184
0.000764509
0.000705955
0.000615619
0.000449485
0.000491794
0.000675904
0.000902903
0.00115715
0.00134346
0.00140876
0.00142816
0.00141789
0.00134439
0.001205
0.0012089
0.00133959
0.00140897
0.00141899
0.00140125
0.00133415
0.00114522
0.000890948
0.000666637
0.000488576
0.000532817
0.000586225
0.000632124
0.000671414
0.00070594
0.00073616
0.000761098
0.000778408
0.000784307
0.0007757
0.000777571
0.000786234
0.000779755
0.000761874
0.000736439
0.000705702
0.000670587
0.000630757
0.000584362
0.000530427
9.61909e-05
0.000118466
0.000129947
0.000135093
0.000136744
0.000137205
0.00013671
0.000136285
0.000138134
0.000142337
0.000142087
0.000140045
0.000140105
0.000141231
0.000141915
0.000141453
0.000139533
0.00013407
0.000122538
9.87569e-05
0.000123828
0.000342799
0.00041383
0.000438768
0.000449674
0.000465772
0.000483948
0.000508628
0.00054795
0.000584166
0.000579018
0.000541176
0.000509112
0.00049168
0.000480162
0.000465799
0.000449267
0.000424626
0.000358103
0.000128504
0.000145926
0.000405935
0.00048644
0.000509729
0.000495994
0.000511289
0.000536839
0.000561136
0.000603748
0.000641957
0.000636752
0.000587054
0.00054624
0.000526289
0.000507722
0.00048638
0.000482687
0.000474934
0.000411225
0.000150799
0.000245724
0.000355881
0.000418415
0.000465671
0.000503256
0.000534868
0.000551716
0.000550121
0.000570437
0.000602929
0.000601047
0.000555555
0.000528661
0.000531674
0.000531111
0.000505477
0.000465616
0.000418465
0.000354019
0.00023895
0.000298967
0.000385023
0.000426882
0.000447073
0.000459048
0.00047125
0.000491427
0.000517669
0.00054472
0.000576673
0.000578597
0.000536478
0.00051112
0.000490472
0.000470901
0.000456165
0.000442437
0.000420957
0.000377133
0.000291648
0.00035769
0.000458933
0.000481568
0.000486396
0.000478957
0.000468581
0.000461921
0.000462682
0.000483026
0.000535183
0.000547032
0.000486319
0.000459491
0.000456463
0.000462422
0.000472284
0.000478937
0.00047252
0.000448514
0.000351645
0.000415168
0.000560267
0.000582582
0.000583705
0.000577861
0.000565085
0.000550001
0.000537212
0.000532985
0.000550889
0.000547014
0.000519482
0.000522346
0.000537452
0.000555107
0.000569682
0.000575513
0.000572089
0.000551545
0.000410799
0.000463339
0.000660577
0.000750192
0.000806979
0.000839491
0.000843117
0.000833172
0.000814449
0.000778171
0.00072895
0.000718962
0.000758181
0.000793827
0.000815669
0.000829131
0.000827677
0.000796648
0.000741601
0.000653218
0.000459814
0.000508132
0.000723024
0.00102245
0.00134346
0.00149124
0.00157918
0.00163463
0.00164042
0.00155473
0.00138041
0.00138266
0.00154935
0.00163154
0.00162551
0.001571
0.00148261
0.00133164
0.00101149
0.000713733
0.000505049
0.000553745
0.000612452
0.000662448
0.00070594
0.000746034
0.000782379
0.000812863
0.000835145
0.000845535
0.000841551
0.000843547
0.000847604
0.000836607
0.000813701
0.000782676
0.000745887
0.000705147
0.000661206
0.000610793
0.000551575
9.40003e-05
0.000115424
0.000126801
0.000133324
0.000137205
0.000139435
0.00014054
0.000141901
0.000145569
0.000152077
0.000151727
0.000147489
0.000145544
0.000144851
0.000143831
0.000141578
0.000137727
0.00013115
0.000119443
9.59024e-05
0.000117349
0.00033929
0.000407942
0.00044121
0.000465772
0.000486625
0.000506623
0.000537393
0.000582236
0.000617861
0.000613597
0.000578248
0.000541802
0.000519014
0.000503229
0.000484483
0.000460211
0.000426416
0.000355565
0.000121527
0.000145041
0.000379433
0.000449065
0.000479778
0.00051129
0.000541775
0.000562389
0.000591136
0.000631627
0.000647437
0.000641074
0.0006176
0.000580631
0.000558211
0.000541674
0.000514567
0.000477821
0.000438587
0.000369959
0.000149666
0.00021189
0.000341686
0.00042658
0.000488465
0.000534868
0.000561274
0.00056515
0.00057064
0.000597141
0.000605995
0.000600177
0.000583834
0.000556768
0.000551547
0.000553796
0.000538512
0.000496204
0.000431597
0.0003413
0.000202224
0.000272157
0.000347099
0.000401024
0.000440055
0.00047125
0.000500922
0.000528806
0.000552644
0.000576602
0.000591998
0.000590237
0.000570212
0.00054763
0.000530015
0.000505337
0.000474846
0.000440577
0.000398895
0.000342261
0.000267034
0.000348343
0.000415234
0.000440003
0.000458072
0.000468581
0.00047547
0.000483689
0.000499963
0.000537067
0.000591065
0.000599723
0.000543793
0.000502313
0.000483265
0.000473802
0.000465941
0.000454158
0.000434202
0.000406855
0.000342331
0.000415869
0.00054701
0.000542802
0.000554181
0.000565085
0.000568835
0.000568224
0.000571408
0.000593374
0.000648459
0.000648992
0.000586469
0.000562931
0.000560925
0.000563229
0.000560514
0.000548808
0.000534204
0.000534877
0.000411547
0.000470263
0.000687069
0.000745771
0.000804818
0.000843117
0.000859244
0.000864329
0.00085574
0.000823236
0.000783641
0.000774895
0.000807526
0.000840677
0.000852657
0.000850358
0.000835605
0.000797246
0.000736662
0.000679093
0.000466803
0.000520276
0.000759042
0.00111032
0.00140876
0.00157918
0.00171053
0.00179428
0.00179532
0.00164996
0.00137252
0.00137405
0.00164522
0.00178629
0.00178714
0.00170547
0.00157424
0.00139721
0.00110227
0.000749896
0.000517265
0.000570157
0.000634077
0.000688199
0.00073616
0.000782379
0.000824579
0.000860777
0.000888477
0.000904189
0.000906482
0.000908763
0.000906593
0.000890166
0.000861817
0.000825077
0.00078238
0.00073548
0.000687043
0.000632534
0.000568125
9.12727e-05
0.00011155
0.000123442
0.00013128
0.00013671
0.00014054
0.000143551
0.000147132
0.000153307
0.000164175
0.00016388
0.000155341
0.000150453
0.000147246
0.000144115
0.000140113
0.000134785
0.000127372
0.000115713
9.28886e-05
0.000115335
0.000342852
0.000415664
0.000455724
0.000483948
0.000506623
0.000530906
0.000566417
0.00060793
0.000631988
0.000627577
0.000607113
0.000573746
0.000545789
0.000524374
0.000501758
0.000473381
0.000433732
0.00036017
0.000117744
0.000145061
0.000366214
0.000445954
0.00049812
0.000536839
0.000562389
0.00058591
0.000613872
0.00062487
0.000569127
0.000558314
0.000612706
0.0006066
0.000585305
0.000565036
0.000539684
0.000503879
0.000454196
0.000376029
0.000147188
0.000168542
0.000355678
0.000456481
0.000518737
0.000551716
0.00056515
0.000571665
0.000585037
0.000582072
0.000492412
0.000478909
0.00056817
0.000577011
0.000566809
0.000560144
0.000549222
0.000522836
0.000472385
0.000379932
0.000160948
0.000251178
0.00032377
0.000389134
0.000444013
0.000491427
0.000528806
0.000554921
0.000572518
0.000571529
0.000482809
0.000471709
0.000562757
0.000570769
0.000557913
0.00053607
0.00050056
0.000452613
0.000393499
0.000324019
0.000247334
0.000338702
0.000376563
0.000404679
0.000435645
0.000461921
0.000483689
0.000504959
0.000531632
0.000560685
0.000521788
0.000519128
0.000564977
0.000538511
0.000510748
0.000487532
0.000464223
0.000436101
0.000402245
0.000370197
0.000332345
0.000413959
0.000501854
0.000497227
0.000522508
0.000550001
0.000568224
0.000579652
0.000597032
0.000636736
0.000660378
0.000660284
0.000635877
0.000596162
0.000579102
0.00056823
0.00054989
0.000520096
0.000489569
0.00048781
0.000409587
0.000473352
0.000692581
0.000720726
0.000784054
0.000833172
0.000864329
0.00087928
0.000868754
0.000829463
0.000790655
0.000784356
0.000819222
0.000859501
0.000873234
0.000860851
0.000830366
0.000780199
0.000713847
0.000683343
0.000469891
0.000527667
0.000774158
0.00115154
0.00142816
0.00163463
0.00179428
0.00187963
0.00183041
0.00155617
0.00118792
0.00118815
0.00155842
0.00182039
0.00187335
0.0017906
0.00163221
0.00142031
0.00114186
0.000764487
0.000524664
0.000581984
0.000650607
0.00070859
0.000761097
0.000812863
0.000860777
0.000902967
0.000937248
0.000961702
0.000978833
0.00098165
0.000964759
0.000939382
0.000904385
0.000861565
0.000813068
0.000760547
0.000707483
0.00064913
0.000580028
8.91199e-05
0.000107827
0.000120307
0.000129361
0.000136285
0.000141901
0.000147132
0.00015372
0.000163359
0.000178748
0.000178777
0.000165404
0.000156311
0.000149562
0.000143855
0.000137873
0.000130934
0.000122268
0.000110235
8.97393e-05
0.000114305
0.000347587
0.000427974
0.000474118
0.000508629
0.000537393
0.000566417
0.000599441
0.00060634
0.000495226
0.000487419
0.000607164
0.000606535
0.00057938
0.000552223
0.000523153
0.000487698
0.000441216
0.000360812
0.000115568
0.000144066
0.000392054
0.000469562
0.000519901
0.000561136
0.000591136
0.000613871
0.000613255
0.000522741
0.000335913
0.000328951
0.000508837
0.000605062
0.000611647
0.000592184
0.000561295
0.00052103
0.000473656
0.000398419
0.00014595
0.000160423
0.000394718
0.000472775
0.00051958
0.000550121
0.00057064
0.000585037
0.000571427
0.000445912
0.000353708
0.000356657
0.000430996
0.000563772
0.000584142
0.000571319
0.000548944
0.000515887
0.000472479
0.000400156
0.000164283
0.00022621
0.000311291
0.00039321
0.000463394
0.000517669
0.000552643
0.000572518
0.000562701
0.000430116
0.000439054
0.000453714
0.000420254
0.000560761
0.000577748
0.000560268
0.000527382
0.000475394
0.000403733
0.000315672
0.000217445
0.000328279
0.000343124
0.000376004
0.000420686
0.000462682
0.000499963
0.000531632
0.00054569
0.000444265
0.000523067
0.000546374
0.000442617
0.000552981
0.000542922
0.00051025
0.000470388
0.000424678
0.000375765
0.000337411
0.000321692
0.000409202
0.00044801
0.000450302
0.000491669
0.000537212
0.000571408
0.000597032
0.000624423
0.000593265
0.000648925
0.000663278
0.000593226
0.00063041
0.000604159
0.000577889
0.000541849
0.000492129
0.00044419
0.000435269
0.000404786
0.000472076
0.000675426
0.000687583
0.000754685
0.000814449
0.00085574
0.000868754
0.000847488
0.00079797
0.000788627
0.000792053
0.000793261
0.000843469
0.000867422
0.000856711
0.000816043
0.000754373
0.000683023
0.000666087
0.000468612
0.000529501
0.000765961
0.00115511
0.00141789
0.00164042
0.00179532
0.00183041
0.00165196
0.00131177
0.00121713
0.00122442
0.00131076
0.00164167
0.00182191
0.00179213
0.00163815
0.00141186
0.00114806
0.00075699
0.000526525
0.000588368
0.00066069
0.000721915
0.000778407
0.000835145
0.000888476
0.000937248
0.000981247
0.00102519
0.00107561
0.00107957
0.00102914
0.000984256
0.000939255
0.000889716
0.000835588
0.000777982
0.000720875
0.000659258
0.000586445
8.90778e-05
0.000106955
0.000119727
0.000129744
0.000138134
0.000145569
0.000153307
0.000163359
0.000173084
0.000187823
0.000188718
0.000175152
0.000164716
0.000153709
0.000145082
0.000137031
0.000128439
0.000118607
0.000106211
8.74004e-05
0.000114334
0.000351906
0.000445995
0.000503579
0.00054795
0.000582236
0.00060793
0.00060634
0.00046636
0.000478839
0.000480714
0.000471249
0.000611571
0.000614798
0.000589298
0.000554729
0.000509356
0.00045123
0.000357302
0.000114524
0.000143391
0.0004096
0.000496135
0.000552759
0.000603748
0.000631627
0.000624869
0.000522741
0.000332013
0.00065271
0.000668021
0.000328747
0.000514336
0.000615664
0.00062477
0.000596069
0.00054816
0.000493413
0.000408516
0.000144481
0.000162992
0.00038659
0.000465296
0.000522776
0.000570437
0.000597141
0.000582072
0.000445912
0.00037508
0.000967122
0.000992977
0.000379812
0.000438609
0.000575815
0.000595712
0.000567614
0.000521322
0.000463972
0.000386559
0.000164301
0.000202226
0.000313727
0.000420521
0.000493856
0.000544719
0.000576602
0.000571529
0.000430115
0.000499777
0.00132886
0.00136313
0.000522498
0.000427624
0.000572672
0.00058315
0.000552187
0.000502243
0.000431684
0.000321509
0.00019053
0.000318285
0.000320547
0.000356831
0.000418418
0.000483025
0.000537066
0.000560685
0.000444264
0.00059686
0.00161221
0.00165442
0.000631476
0.000447983
0.000571944
0.000551646
0.000495822
0.000426857
0.000359131
0.00031632
0.000311617
0.000401584
0.000402162
0.000407419
0.000463217
0.000532985
0.000593374
0.000636736
0.000593265
0.000725532
0.00177142
0.00181383
0.000760219
0.000600397
0.000651069
0.000607357
0.000543569
0.000468177
0.000405327
0.000394265
0.000397148
0.000465681
0.000636435
0.00064174
0.000709769
0.00077817
0.000823236
0.000829462
0.00079797
0.000861947
0.00176951
0.00180615
0.000885393
0.000799582
0.00083316
0.00082879
0.000783861
0.000712907
0.000639275
0.000627729
0.000462261
0.000524146
0.000726813
0.00111797
0.00134439
0.00155473
0.00164996
0.00155617
0.00131177
0.0012921
0.00171264
0.00173644
0.0013117
0.00130949
0.00154448
0.00164615
0.00155217
0.00133795
0.0011129
0.000719153
0.000521259
0.000587344
0.000661786
0.000725063
0.000784307
0.000845535
0.000904189
0.000961702
0.00102519
0.00110468
0.00119437
0.0011995
0.00111062
0.00102993
0.000964847
0.000906196
0.000846448
0.000784089
0.000724095
0.000660398
0.000585445
8.99156e-05
0.000108237
0.000121412
0.000132349
0.000142337
0.000152077
0.000164176
0.000178748
0.000187823
0.00019119
0.000191598
0.000187633
0.000178065
0.000162125
0.000148956
0.000138747
0.000128656
0.000117944
0.000105176
8.68088e-05
0.000115691
0.000364529
0.000467382
0.000532545
0.000584167
0.000617862
0.000631989
0.000495226
0.000478839
0.000288092
0.000291391
0.000478335
0.000508109
0.000636853
0.00061889
0.000585177
0.000532576
0.000466663
0.000363682
0.000115665
0.000145511
0.000431763
0.000527096
0.000588567
0.000641958
0.000647438
0.000569128
0.000335913
0.000652709
0.000437632
0.000442676
0.000641628
0.000336247
0.000559215
0.000632642
0.000627198
0.000578083
0.000519574
0.000427829
0.000146493
0.000166938
0.000414018
0.000493587
0.00055084
0.00060293
0.000605995
0.000492413
0.000353708
0.000967121
0.000617086
0.000625283
0.000964822
0.000360076
0.000483094
0.000595122
0.000593143
0.000545498
0.000489913
0.000412448
0.000167254
0.000191105
0.00038151
0.000463043
0.000517576
0.000576673
0.000591998
0.00048281
0.000439054
0.00132886
0.000830677
0.000842292
0.00134453
0.000463071
0.000479107
0.000592167
0.000578094
0.000519974
0.00046574
0.000385875
0.000183379
0.000308984
0.000316595
0.000357418
0.000443708
0.000535183
0.000591065
0.000521788
0.000523066
0.00161221
0.0010672
0.00108199
0.00164856
0.000554619
0.000526452
0.000604746
0.000550869
0.000455906
0.00036304
0.000314608
0.000302596
0.000391813
0.000377821
0.000379131
0.000446908
0.00055089
0.000648459
0.000660378
0.000648924
0.00177141
0.00129824
0.00131484
0.00182088
0.000679404
0.00067799
0.000670715
0.000570239
0.000459027
0.000382273
0.000374931
0.000387845
0.000454356
0.000582959
0.000578853
0.00064854
0.000728949
0.00078364
0.000790655
0.000788626
0.00176951
0.0014692
0.00148672
0.00182601
0.000809022
0.000801458
0.000797774
0.000742731
0.000658649
0.000582509
0.000579079
0.000451568
0.000510749
0.000655629
0.00101861
0.001205
0.00138041
0.00137252
0.00118792
0.00121713
0.00171264
0.00157809
0.00159631
0.0017523
0.00123792
0.00119727
0.0013791
0.00138216
0.00120642
0.00101365
0.000655246
0.000508492
0.000575702
0.000651098
0.000714581
0.0007757
0.000841551
0.000906482
0.000978833
0.00107561
0.00119437
0.00123483
0.00123862
0.00120245
0.00108266
0.00098417
0.000909984
0.0008433
0.000776056
0.000713604
0.00064977
0.000573949
9.02384e-05
0.00010872
0.00012167
0.000132347
0.000142088
0.000151727
0.000163881
0.000178777
0.000188718
0.000191598
0.000189993
0.000186678
0.000177674
0.000161825
0.000148726
0.000138751
0.000128871
0.000118354
0.000105688
8.72015e-05
0.000115227
0.000362067
0.00046251
0.000527217
0.00057902
0.000613599
0.000627578
0.00048742
0.000480715
0.000291392
0.000293125
0.000484917
0.000505269
0.00063601
0.000616843
0.000582481
0.000529219
0.000462903
0.00036007
0.00011532
0.000144109
0.00042275
0.000517181
0.000581567
0.000636754
0.000641076
0.000558316
0.000328952
0.000668023
0.000442677
0.000446627
0.000666339
0.000328611
0.000550295
0.000626682
0.000623305
0.000572166
0.000511219
0.000419277
0.000145082
0.000165193
0.000410481
0.000487987
0.000547131
0.000601049
0.000600178
0.00047891
0.000356659
0.000992981
0.000625284
0.00063016
0.000998369
0.00036138
0.000471748
0.000587707
0.000588601
0.000539978
0.000482783
0.000406131
0.000165076
0.000189157
0.000395471
0.000463169
0.000517458
0.0005786
0.000590239
0.00047171
0.000453717
0.00136313
0.000842294
0.000846008
0.00137908
0.000473848
0.000470883
0.000588349
0.000576117
0.000516479
0.000460586
0.000386787
0.000180825
0.00030577
0.000312164
0.00035633
0.000452028
0.000547034
0.000599725
0.000519129
0.000546379
0.00165443
0.001082
0.00108338
0.00168207
0.000564954
0.000525623
0.000610398
0.000558192
0.00046051
0.000361709
0.000310215
0.000298995
0.000390836
0.000371595
0.000370986
0.000439219
0.000547015
0.000648993
0.000660284
0.000663282
0.00181384
0.00131485
0.00131326
0.00184639
0.000680502
0.000677837
0.000668752
0.00056658
0.000454398
0.000377148
0.000370046
0.000387016
0.000454271
0.000576659
0.000571317
0.000639133
0.000718961
0.000774894
0.000784355
0.000792056
0.00180615
0.00148672
0.00148332
0.00184099
0.000807248
0.000800429
0.000793524
0.000736889
0.000653657
0.000578893
0.000575995
0.000451884
0.000511234
0.000655554
0.00101865
0.0012089
0.00138266
0.00137405
0.00118815
0.00122442
0.00173645
0.00159631
0.00159285
0.0017608
0.00123971
0.00120427
0.00139088
0.00138962
0.0012116
0.00101567
0.000659838
0.000509349
0.000576694
0.000652417
0.000716137
0.000777572
0.000843547
0.000908763
0.000981651
0.00107957
0.0011995
0.00123863
0.00123408
0.00120196
0.00108233
0.000983977
0.000910373
0.000843973
0.000776777
0.000714144
0.000650459
0.000574854
9.08863e-05
0.000109908
0.000122285
0.000131883
0.000140045
0.00014749
0.000155341
0.000165404
0.000175152
0.000187633
0.000186678
0.000173197
0.000162447
0.000151546
0.000143507
0.000136133
0.000128233
0.000119083
0.000107163
8.81591e-05
0.000114308
0.000351559
0.000440318
0.000496137
0.000541178
0.000578251
0.000607116
0.000607166
0.00047125
0.000478335
0.000484917
0.000483308
0.00061687
0.000608727
0.000578654
0.000541935
0.000496674
0.000440574
0.00034975
0.000114309
0.000141855
0.000391709
0.000475398
0.000534972
0.000587057
0.000617603
0.000612708
0.000508838
0.000328749
0.000641628
0.000666339
0.000325521
0.000504404
0.000603244
0.00061125
0.000582418
0.000532327
0.00047616
0.000393441
0.000142879
0.000160984
0.000364778
0.000444345
0.000503743
0.000555558
0.000583836
0.000568171
0.000430997
0.000379814
0.000964823
0.000998369
0.000385549
0.000425092
0.000562306
0.000583414
0.000555004
0.00050667
0.000448537
0.000371118
0.000161004
0.000191627
0.000313794
0.000417511
0.000485518
0.00053648
0.000570215
0.000562758
0.000420255
0.000522501
0.00134453
0.00137908
0.0005354
0.000419066
0.000565011
0.000577369
0.000545102
0.000493879
0.000423327
0.000317894
0.000180318
0.000312936
0.000308828
0.000346943
0.00041558
0.000486321
0.000543795
0.000564979
0.000442618
0.000631481
0.00164856
0.00168207
0.000652266
0.000450003
0.000576091
0.000556203
0.00049838
0.00042632
0.000354746
0.000307874
0.000305488
0.000400576
0.000388421
0.000389051
0.000445327
0.000519483
0.000586469
0.000635877
0.000593226
0.000760223
0.00182089
0.00184639
0.000775792
0.000596599
0.000646721
0.000599322
0.000532261
0.00045537
0.000393095
0.00038511
0.000396814
0.00046627
0.000630261
0.000622975
0.000687944
0.000758181
0.000807525
0.000819221
0.00079326
0.000885396
0.00182601
0.00184099
0.000898497
0.000800408
0.00082751
0.000815603
0.000766622
0.000695719
0.000627851
0.000628691
0.000464055
0.000525507
0.000729784
0.00111529
0.00133959
0.00154935
0.00164522
0.00155842
0.00131076
0.0013117
0.0017523
0.0017608
0.00132323
0.00132835
0.00157547
0.00165053
0.0015462
0.00133374
0.00111831
0.000732115
0.000523731
0.000588883
0.000663596
0.000726957
0.000786234
0.000847604
0.000906593
0.00096476
0.00102914
0.00111062
0.00120245
0.00120196
0.00111156
0.00103051
0.000965974
0.000906939
0.000846853
0.000784488
0.000724808
0.000661583
0.000587077
9.24431e-05
0.000113059
0.000124973
0.000133467
0.000140106
0.000145544
0.000150453
0.000156311
0.000164716
0.000178065
0.000177675
0.000162447
0.00015249
0.000146202
0.0001412
0.000135923
0.000129742
0.000121866
0.00011053
9.01316e-05
0.000114644
0.000348845
0.000424542
0.000471445
0.000509114
0.000541804
0.000573748
0.000606536
0.000611572
0.000508109
0.000505269
0.000616871
0.000604985
0.000569357
0.000538181
0.00050697
0.000470877
0.000425896
0.000349149
0.0001147
0.000142265
0.00037173
0.000447664
0.000502497
0.000546242
0.000580633
0.000606602
0.000605063
0.000514337
0.000336248
0.000328611
0.000504404
0.000596354
0.000601806
0.000579739
0.000547136
0.000502826
0.000454042
0.000378734
0.000143547
0.000159514
0.00036467
0.000440993
0.000491347
0.000528662
0.00055677
0.000577013
0.000563773
0.000438609