/*--------------------------------*- C++ -*----------------------------------*\
| =========                 |                                                 |
| \\      /  F ield         | OpenFOAM: The Open Source CFD Toolbox           |
|  \\    /   O peration     | Version:  1.7.1                                 |
|   \\  /    A nd           | Web:      www.OpenFOAM.com                      |
|    \\/     M anipulation  |                                                 |
\*---------------------------------------------------------------------------*/
FoamFile
{
    version     2.0;
    format      ascii;
    class       volScalarField;
    location    "2000";
    object      epsilon;
}
// * * * * * * * * * * * * * * * * * * * * * * * * * * * * * * * * * * * * * //

dimensions      [0 2 -3 0 0 0 0];

internalField   nonuniform List<scalar> 
4000
(
6.28472e-09
6.04061e-09
6.02833e-09
5.59576e-09
5.23549e-09
4.88061e-09
4.45973e-09
4.15576e-09
4.15533e-09
4.27726e-09
4.31152e-09
4.38574e-09
4.60036e-09
4.86444e-09
5.18614e-09
5.62267e-09
6.0097e-09
6.5233e-09
6.55025e-09
6.21882e-09
2.0125e-08
1.22203e-08
1.24629e-08
1.20644e-08
1.10117e-08
9.39089e-09
8.956e-09
8.71412e-09
8.73813e-09
9.05962e-09
8.95074e-09
8.7371e-09
8.7987e-09
8.96444e-09
9.94944e-09
1.17579e-08
1.26898e-08
1.34505e-08
1.32755e-08
1.47697e-08
1.51391e-07
1.0832e-07
5.98786e-08
2.64737e-08
1.8114e-08
1.77787e-08
1.78043e-08
1.74277e-08
1.71912e-08
1.79721e-08
1.74441e-08
1.6641e-08
1.67926e-08
1.7193e-08
1.81348e-08
1.85141e-08
2.26907e-08
5.32276e-08
9.84799e-08
1.36069e-07
2.33427e-07
2.0839e-07
1.70474e-07
1.26611e-07
8.59813e-08
5.46575e-08
2.76091e-08
2.41726e-08
2.52493e-08
2.71312e-08
2.62137e-08
2.42643e-08
2.36735e-08
2.41543e-08
5.02204e-08
8.35958e-08
1.26612e-07
1.68395e-07
2.01028e-07
2.22815e-07
2.81389e-07
2.68829e-07
2.38271e-07
1.99061e-07
1.56367e-07
1.18412e-07
9.31585e-08
6.77031e-08
4.8351e-08
4.05147e-08
3.87886e-08
4.02467e-08
5.99562e-08
9.1134e-08
1.17079e-07
1.53843e-07
1.95569e-07
2.3309e-07
2.60374e-07
2.70391e-07
3.16603e-07
3.23632e-07
3.12326e-07
2.904e-07
2.68123e-07
2.47973e-07
2.27962e-07
2.07423e-07
1.88784e-07
1.72109e-07
1.65851e-07
1.77725e-07
1.96829e-07
2.19275e-07
2.41202e-07
2.61795e-07
2.84599e-07
3.04431e-07
3.12875e-07
3.04671e-07
3.474e-07
3.79729e-07
3.9959e-07
4.11587e-07
4.19249e-07
4.21617e-07
4.15885e-07
4.01548e-07
3.79195e-07
3.51633e-07
3.4806e-07
3.74706e-07
3.954e-07
4.08578e-07
4.13434e-07
4.10176e-07
4.01604e-07
3.88193e-07
3.66676e-07
3.3458e-07
3.80199e-07
4.4183e-07
4.98146e-07
5.45051e-07
5.8303e-07
6.09727e-07
6.21814e-07
6.16604e-07
5.91571e-07
5.48994e-07
5.4779e-07
5.92254e-07
6.14409e-07
6.16412e-07
6.01582e-07
5.72581e-07
5.32695e-07
4.84151e-07
4.26808e-07
3.66676e-07
4.19762e-07
5.17941e-07
6.13459e-07
6.97459e-07
7.6962e-07
8.26257e-07
8.61903e-07
8.70616e-07
8.44058e-07
7.80444e-07
7.81756e-07
8.48971e-07
8.71562e-07
8.58454e-07
8.18998e-07
7.59118e-07
6.84319e-07
5.98393e-07
5.0203e-07
4.05665e-07
4.74858e-07
6.21059e-07
7.63424e-07
8.87797e-07
9.96743e-07
1.08799e-06
1.15693e-06
1.19513e-06
1.18848e-06
1.11836e-06
1.12322e-06
1.19611e-06
1.19863e-06
1.15578e-06
1.08254e-06
9.87418e-07
8.75058e-07
7.48026e-07
6.04563e-07
4.60211e-07
6.0406e-09
8.57971e-09
9.65123e-09
1.00308e-08
9.8157e-09
9.0667e-09
8.16699e-09
7.36958e-09
7.20231e-09
7.46625e-09
7.54421e-09
7.75169e-09
8.40238e-09
9.19752e-09
9.92446e-09
1.0721e-08
1.08292e-08
1.02459e-08
9.18462e-09
6.28483e-09
1.22202e-08
1.68623e-08
1.76577e-08
1.86168e-08
1.76784e-08
1.47684e-08
1.34195e-08
1.13272e-08
1.01261e-08
1.01139e-08
1.02129e-08
1.07134e-08
1.24522e-08
1.50815e-08
1.68532e-08
1.90368e-08
1.97261e-08
1.81303e-08
1.67184e-08
1.31094e-08
1.0832e-07
8.68961e-08
5.61842e-08
4.28251e-08
3.61835e-08
2.56004e-08
2.32139e-08
1.8792e-08
1.61767e-08
1.58449e-08
1.54978e-08
1.5632e-08
1.7795e-08
2.28819e-08
2.68488e-08
3.39339e-08
3.87493e-08
4.77587e-08
7.52861e-08
9.388e-08
2.0839e-07
2.34024e-07
1.86235e-07
1.33838e-07
1.01567e-07
7.54027e-08
5.17103e-08
3.32173e-08
2.47149e-08
2.30358e-08
2.2318e-08
2.31245e-08
2.90285e-08
4.55204e-08
6.94034e-08
9.82021e-08
1.30664e-07
1.7698e-07
2.1802e-07
1.96813e-07
2.68829e-07
2.47846e-07
2.19909e-07
1.81791e-07
1.35433e-07
1.00601e-07
7.84498e-08
6.21754e-08
4.57257e-08
3.70223e-08
3.46212e-08
4.02623e-08
5.76906e-08
7.64401e-08
9.75391e-08
1.32316e-07
1.7729e-07
2.12608e-07
2.37486e-07
2.56212e-07
3.23631e-07
2.80949e-07
2.64192e-07
2.42503e-07
2.1665e-07
1.79927e-07
1.49408e-07
1.2325e-07
1.05092e-07
9.73934e-08
9.28883e-08
9.57952e-08
1.1298e-07
1.40068e-07
1.72879e-07
2.09625e-07
2.3649e-07
2.56405e-07
2.70402e-07
3.10413e-07
3.79729e-07
3.33389e-07
3.31762e-07
3.30015e-07
3.27283e-07
3.12548e-07
2.7291e-07
2.29958e-07
1.96288e-07
1.77885e-07
1.73772e-07
1.87818e-07
2.20064e-07
2.64363e-07
3.03242e-07
3.18603e-07
3.21508e-07
3.22355e-07
3.21888e-07
3.66343e-07
4.4183e-07
4.15562e-07
4.3615e-07
4.55677e-07
4.78185e-07
4.93663e-07
4.89632e-07
4.64899e-07
4.24616e-07
3.75541e-07
3.73197e-07
4.25779e-07
4.6456e-07
4.8629e-07
4.87231e-07
4.69892e-07
4.4655e-07
4.25787e-07
4.02623e-07
4.28399e-07
5.17941e-07
5.66624e-07
6.44938e-07
7.1647e-07
7.84938e-07
8.42543e-07
8.74909e-07
8.72677e-07
8.19521e-07
7.11004e-07
7.1444e-07
8.30159e-07
8.79121e-07
8.77041e-07
8.40727e-07
7.79509e-07
7.08216e-07
6.3417e-07
5.51888e-07
5.03716e-07
6.21059e-07
8.11231e-07
1.00424e-06
1.18302e-06
1.34894e-06
1.49667e-06
1.61638e-06
1.69212e-06
1.69976e-06
1.61738e-06
1.62649e-06
1.71207e-06
1.69976e-06
1.6186e-06
1.49393e-06
1.34179e-06
1.17198e-06
9.90205e-07
7.95762e-07
6.06782e-07
6.02834e-09
9.65124e-09
1.16411e-08
1.3062e-08
1.29272e-08
1.20332e-08
1.10904e-08
1.02454e-08
1.01003e-08
1.05334e-08
1.0578e-08
1.06912e-08
1.13775e-08
1.23184e-08
1.31928e-08
1.39981e-08
1.40822e-08
1.23486e-08
1.00349e-08
6.25956e-09
1.24629e-08
1.76577e-08
2.05366e-08
2.34376e-08
2.13628e-08
1.8009e-08
1.65445e-08
1.42607e-08
1.31391e-08
1.32254e-08
1.31918e-08
1.35566e-08
1.5289e-08
1.81523e-08
2.03082e-08
2.23719e-08
2.4205e-08
2.13273e-08
1.81761e-08
1.36564e-08
5.98781e-08
5.6184e-08
4.7777e-08
4.74199e-08
4.11903e-08
3.09602e-08
2.8361e-08
2.27073e-08
1.94101e-08
1.8438e-08
1.78574e-08
1.85046e-08
2.16072e-08
2.77268e-08
3.21082e-08
3.85494e-08
4.47709e-08
4.28905e-08
4.73072e-08
4.81471e-08
1.70475e-07
1.86235e-07
1.53369e-07
1.22121e-07
1.03101e-07
8.26837e-08
6.04196e-08
4.14699e-08
3.06695e-08
2.63852e-08
2.50841e-08
2.8068e-08
3.60457e-08
5.28066e-08
7.48415e-08
9.7838e-08
1.18197e-07
1.45538e-07
1.72153e-07
1.60498e-07
2.3827e-07
2.19908e-07
1.913e-07
1.54689e-07
1.19012e-07
9.22778e-08
7.53003e-08
6.34742e-08
5.13383e-08
4.15567e-08
3.81708e-08
4.67968e-08
6.00611e-08
7.35381e-08
8.92085e-08
1.15016e-07
1.49633e-07
1.83015e-07
2.08115e-07
2.24923e-07
3.12326e-07
2.64191e-07
2.29858e-07
1.97505e-07
1.62925e-07
1.33245e-07
1.09325e-07
8.89929e-08
7.34655e-08
6.36218e-08
5.94328e-08
6.68572e-08
8.19824e-08
1.02584e-07
1.27253e-07
1.5713e-07
1.91248e-07
2.21567e-07
2.52908e-07
2.9774e-07
3.9959e-07
3.31762e-07
2.99439e-07
2.68749e-07
2.35961e-07
2.04309e-07
1.73746e-07
1.44586e-07
1.20388e-07
1.05426e-07
1.01986e-07
1.12797e-07
1.35535e-07
1.65399e-07
1.9648e-07
2.28789e-07
2.61101e-07
2.89796e-07
3.20136e-07
3.85485e-07
4.98146e-07
4.36149e-07
4.3413e-07
4.22056e-07
3.95926e-07
3.4969e-07
3.15134e-07
2.88759e-07
2.55296e-07
2.14658e-07
2.13347e-07
2.50698e-07
2.81275e-07
3.06797e-07
3.42286e-07
3.87817e-07
4.1257e-07
4.21949e-07
4.22739e-07
4.84171e-07
6.13459e-07
6.44938e-07
7.71012e-07
9.0106e-07
1.01528e-06
1.11347e-06
1.15454e-06
1.13035e-06
9.99539e-07
7.62497e-07
7.73026e-07
1.01008e-06
1.13523e-06
1.15525e-06
1.11031e-06
1.00682e-06
8.88481e-07
7.54817e-07
6.27974e-07
5.98684e-07
7.63424e-07
1.00424e-06
1.2493e-06
1.4832e-06
1.70677e-06
1.9132e-06
2.08773e-06
2.2069e-06
2.23475e-06
2.13727e-06
2.15069e-06
2.25084e-06
2.21729e-06
2.09207e-06
1.9122e-06
1.70102e-06
1.47318e-06
1.23607e-06
9.89463e-07
7.49108e-07
5.59577e-09
1.00308e-08
1.3062e-08
1.46832e-08
1.45163e-08
1.39884e-08
1.33375e-08
1.27316e-08
1.28346e-08
1.36215e-08
1.36071e-08
1.34254e-08
1.38941e-08
1.46803e-08
1.53594e-08
1.58219e-08
1.58184e-08
1.41791e-08
1.07545e-08
5.87315e-09
1.20644e-08
1.86168e-08
2.34376e-08
2.48032e-08
2.14397e-08
1.96426e-08
1.84308e-08
1.66544e-08
1.62427e-08
1.68213e-08
1.6637e-08
1.64041e-08
1.75156e-08
1.99284e-08
2.20902e-08
2.32993e-08
2.508e-08
2.48092e-08
2.025e-08
1.33017e-08
2.64732e-08
4.28252e-08
4.742e-08
4.84252e-08
3.83864e-08
3.35827e-08
3.07398e-08
2.52611e-08
2.27361e-08
2.16678e-08
2.09198e-08
2.16099e-08
2.44432e-08
2.97983e-08
3.45883e-08
3.82253e-08
4.51905e-08
4.63442e-08
4.11285e-08
2.16031e-08
1.26611e-07
1.33838e-07
1.22121e-07
1.10217e-07
9.9116e-08
8.00909e-08
5.90554e-08
4.33054e-08
3.48146e-08
2.97044e-08
2.80144e-08
3.15847e-08
3.88373e-08
5.20585e-08
7.19e-08
9.14367e-08
1.05834e-07
1.17699e-07
1.25954e-07
1.17418e-07
1.9906e-07
1.81791e-07
1.54688e-07
1.27465e-07
1.0402e-07
8.56718e-08
7.43863e-08
6.53012e-08
5.47086e-08
4.29768e-08
3.93679e-08
4.97336e-08
6.16701e-08
7.28389e-08
8.37082e-08
1.00111e-07
1.22243e-07
1.46834e-07
1.70532e-07
1.86323e-07
2.90399e-07
2.42502e-07
1.97505e-07
1.6044e-07
1.30244e-07
1.07169e-07
8.96703e-08
7.54407e-08
6.3683e-08
5.36407e-08
5.04656e-08
5.92898e-08
7.08753e-08
8.49102e-08
1.02303e-07
1.24859e-07
1.53748e-07
1.88437e-07
2.30617e-07
2.7567e-07
4.11587e-07
3.30014e-07
2.68749e-07
2.17834e-07
1.81317e-07
1.55331e-07
1.34313e-07
1.15473e-07
9.83968e-08
8.67595e-08
8.38236e-08
9.17214e-08
1.07614e-07
1.27015e-07
1.48656e-07
1.74861e-07
2.09977e-07
2.58816e-07
3.18779e-07
3.9733e-07
5.45051e-07
4.55677e-07
4.22056e-07
3.78256e-07
3.37082e-07
3.17801e-07
3.06506e-07
2.93436e-07
2.61899e-07
2.12117e-07
2.1126e-07
2.5454e-07
2.82969e-07
2.96125e-07
3.08576e-07
3.27548e-07
3.65814e-07
4.08254e-07
4.42809e-07
5.3075e-07
6.97458e-07
7.16469e-07
9.01059e-07
1.14216e-06
1.30848e-06
1.43286e-06
1.55843e-06
1.60486e-06
1.46854e-06
1.16448e-06
1.18934e-06
1.47793e-06
1.60335e-06
1.55478e-06
1.42922e-06
1.29553e-06
1.12153e-06
8.79541e-07
6.98532e-07
6.82175e-07
8.87797e-07
1.18302e-06
1.4832e-06
1.77698e-06
2.06497e-06
2.34118e-06
2.58651e-06
2.76601e-06
2.82803e-06
2.73442e-06
2.7537e-06
2.8478e-06
2.77888e-06
2.59248e-06
2.34142e-06
2.06009e-06
1.76732e-06
1.47037e-06
1.16876e-06
8.73535e-07
5.2355e-09
9.8157e-09
1.29272e-08
1.45163e-08
1.50862e-08
1.52497e-08
1.50522e-08
1.4876e-08
1.54632e-08
1.69127e-08
1.68261e-08
1.60898e-08
1.61072e-08
1.6508e-08
1.67355e-08
1.65227e-08
1.58017e-08
1.39729e-08
1.06444e-08
5.57352e-09
1.10117e-08
1.76784e-08
2.13628e-08
2.14398e-08
2.06325e-08
2.04141e-08
1.93622e-08
1.85078e-08
1.92401e-08
2.11259e-08
2.07813e-08
1.92174e-08
1.9326e-08
2.09065e-08
2.28007e-08
2.35359e-08
2.35758e-08
2.25169e-08
1.86135e-08
1.22752e-08
1.8114e-08
3.61836e-08
4.11903e-08
3.83865e-08
3.53318e-08
3.44635e-08
3.04934e-08
2.69368e-08
2.59319e-08
2.6193e-08
2.54371e-08
2.44863e-08
2.59301e-08
2.98077e-08
3.48052e-08
3.7315e-08
3.88267e-08
3.90054e-08
3.38522e-08
1.99065e-08
8.59814e-08
1.01567e-07
1.03101e-07
9.91161e-08
8.77001e-08
6.98478e-08
5.31165e-08
4.2337e-08
3.672e-08
3.37121e-08
3.21934e-08
3.36441e-08
3.87106e-08
4.81697e-08
6.31559e-08
7.98806e-08
9.20224e-08
9.81988e-08
9.60095e-08
7.85493e-08
1.56366e-07
1.35432e-07
1.19012e-07
1.0402e-07
9.04486e-08
8.01216e-08
7.30125e-08
6.46709e-08
5.42333e-08
4.57575e-08
4.31847e-08
4.92911e-08
6.03918e-08
7.10872e-08
7.94833e-08
8.81117e-08
9.96731e-08
1.12672e-07
1.26219e-07
1.44965e-07
2.68122e-07
2.1665e-07
1.62925e-07
1.30244e-07
1.07151e-07
9.03023e-08
7.79881e-08
6.87329e-08
6.14557e-08
5.80381e-08
5.66445e-08
5.8636e-08
6.5771e-08
7.47228e-08
8.65937e-08
1.0262e-07
1.24207e-07
1.54427e-07
2.04563e-07
2.54047e-07
4.19248e-07
3.27283e-07
2.35961e-07
1.81317e-07
1.49934e-07
1.3033e-07
1.16733e-07
1.06445e-07
9.85096e-08
9.56146e-08
9.32921e-08
9.29537e-08
1.00036e-07
1.10742e-07
1.24811e-07
1.44458e-07
1.7456e-07
2.25828e-07
3.15782e-07
4.05127e-07
5.83029e-07
4.78185e-07
3.95926e-07
3.37082e-07
3.30592e-07
3.42609e-07
3.57334e-07
3.62572e-07
3.36241e-07
2.79411e-07
2.77604e-07
3.27365e-07
3.51191e-07
3.4653e-07
3.32989e-07
3.21555e-07
3.25931e-07
3.81569e-07
4.656e-07
5.68489e-07
7.6962e-07
7.84937e-07
1.01528e-06
1.30848e-06
1.59733e-06
1.94956e-06
2.22121e-06
2.35123e-06
2.19109e-06
1.75623e-06
1.77835e-06
2.19583e-06
2.34205e-06
2.20418e-06
1.92854e-06
1.58403e-06
1.27359e-06
9.9111e-07
7.66341e-07
7.53842e-07
9.96742e-07
1.34894e-06
1.70677e-06
2.06497e-06
2.43663e-06
2.80989e-06
3.15049e-06
3.41567e-06
3.54347e-06
3.49261e-06
3.51669e-06
3.56863e-06
3.43241e-06
3.1586e-06
2.81094e-06
2.43264e-06
2.05521e-06
1.69407e-06
1.33492e-06
9.82515e-07
4.88062e-09
9.06672e-09
1.20332e-08
1.39884e-08
1.52497e-08
1.5987e-08
1.63362e-08
1.67759e-08
1.80685e-08
2.05849e-08
2.04721e-08
1.88087e-08
1.80866e-08
1.78456e-08
1.74674e-08
1.66264e-08
1.5256e-08
1.31274e-08
9.8838e-09
5.11111e-09
9.39091e-09
1.47684e-08
1.8009e-08
1.96426e-08
2.04141e-08
2.03736e-08
1.97851e-08
2.00704e-08
2.2409e-08
2.65456e-08
2.61344e-08
2.24018e-08
2.09988e-08
2.14544e-08
2.24916e-08
2.29692e-08
2.2458e-08
2.05047e-08
1.6583e-08
1.03997e-08
1.77787e-08
2.56005e-08
3.09603e-08
3.35828e-08
3.44635e-08
3.25638e-08
2.93288e-08
2.76423e-08
2.84297e-08
3.09536e-08
3.00974e-08
2.69329e-08
2.68052e-08
2.9124e-08
3.25437e-08
3.52878e-08
3.56118e-08
3.31092e-08
2.76888e-08
1.95149e-08
5.46575e-08
7.54028e-08
8.26838e-08
8.00909e-08
6.98478e-08
5.71236e-08
4.67552e-08
4.01721e-08
3.74668e-08
3.90784e-08
3.78458e-08
3.47057e-08
3.7411e-08
4.37267e-08
5.30122e-08
6.41708e-08
7.35428e-08
7.6139e-08
6.86124e-08
4.72911e-08
1.18411e-07
1.00601e-07
9.22777e-08
8.56717e-08
8.01216e-08
7.54073e-08
6.93536e-08
6.07035e-08
5.20022e-08
5.02839e-08
4.88826e-08
4.79636e-08
5.64e-08
6.65673e-08
7.46312e-08
7.98143e-08
8.38026e-08
8.827e-08
9.4509e-08
1.11538e-07
2.47973e-07
1.79927e-07
1.33245e-07
1.07169e-07
9.03023e-08
7.84929e-08
7.01851e-08
6.45986e-08
6.13563e-08
6.75322e-08
6.74692e-08
5.95749e-08
6.27856e-08
6.81843e-08
7.5954e-08
8.70221e-08
1.02636e-07
1.26685e-07
1.69588e-07
2.34549e-07
4.21616e-07
3.12548e-07
2.04309e-07
1.55331e-07
1.3033e-07
1.1656e-07
1.08953e-07
1.0589e-07
1.08199e-07
1.22011e-07
1.21258e-07
1.0435e-07
1.01304e-07
1.04534e-07
1.12406e-07
1.26069e-07
1.49954e-07
1.96033e-07
2.98784e-07
4.07498e-07
6.09727e-07
4.93663e-07
3.49689e-07
3.178e-07
3.42609e-07
3.84695e-07
4.26371e-07
4.47282e-07
4.15266e-07
3.4684e-07
3.44195e-07
4.06251e-07
4.35997e-07
4.16197e-07
3.76245e-07
3.34734e-07
3.07976e-07
3.35245e-07
4.80552e-07
5.94945e-07
8.26256e-07
8.42542e-07
1.11347e-06
1.43286e-06
1.94956e-06
2.48291e-06
2.91341e-06
3.10855e-06
2.79731e-06
2.09549e-06
2.1144e-06
2.79662e-06
3.08475e-06
2.88247e-06
2.45848e-06
1.93104e-06
1.39858e-06
1.08746e-06
8.23078e-07
8.1003e-07
1.08799e-06
1.49667e-06
1.9132e-06
2.34118e-06
2.80989e-06
3.28899e-06
3.74045e-06
4.11199e-06
4.33299e-06
4.36612e-06
4.39783e-06
4.36692e-06
4.1346e-06
3.75253e-06
3.29291e-06
2.80743e-06
2.33203e-06
1.90057e-06
1.48268e-06
1.07374e-06
4.45974e-09
8.16701e-09
1.10905e-08
1.33376e-08
1.50522e-08
1.63362e-08
1.73826e-08
1.86771e-08
2.10761e-08
2.58523e-08
2.57792e-08
2.19909e-08
1.99984e-08
1.87573e-08
1.75765e-08
1.61199e-08
1.43019e-08
1.20186e-08
8.97694e-09
4.64532e-09
8.95602e-09
1.34195e-08
1.65445e-08
1.84308e-08
1.93622e-08
1.97851e-08
2.02779e-08
2.22986e-08
2.77762e-08
4.02028e-08
4.00971e-08
2.80257e-08
2.33764e-08
2.2012e-08
2.176e-08
2.1378e-08
2.04463e-08
1.85248e-08
1.5058e-08
9.45989e-09
1.78044e-08
2.3214e-08
2.8361e-08
3.07398e-08
3.04934e-08
2.93288e-08
2.8323e-08
2.90508e-08
3.39204e-08
4.7666e-08
4.75489e-08
3.25947e-08
2.83337e-08
2.83571e-08
2.96583e-08
3.07955e-08
3.11094e-08
2.95697e-08
2.46545e-08
1.854e-08
2.76091e-08
5.17104e-08
6.04197e-08
5.90555e-08
5.31166e-08
4.67552e-08
4.15055e-08
3.88364e-08
4.29053e-08
6.67395e-08
6.7243e-08
4.0813e-08
3.68662e-08
3.97488e-08
4.46791e-08
5.02801e-08
5.53665e-08
5.66159e-08
4.85933e-08
2.41287e-08
9.31582e-08
7.84496e-08
7.53002e-08
7.43862e-08
7.30125e-08
6.93536e-08
6.27208e-08
5.5176e-08
5.43993e-08
8.76478e-08
9.00346e-08
5.20231e-08
5.19324e-08
5.97203e-08
6.75575e-08
7.25004e-08
7.40564e-08
7.40112e-08
7.53314e-08
8.82928e-08
2.27961e-07
1.49408e-07
1.09325e-07
8.96702e-08
7.79881e-08
7.01851e-08
6.49409e-08
6.18779e-08
6.59715e-08
1.15231e-07
1.20039e-07
6.53476e-08
6.08106e-08
6.39001e-08
6.87755e-08
7.58756e-08
8.64682e-08
1.0423e-07
1.40632e-07
2.14488e-07
4.15884e-07
2.72909e-07
1.73746e-07
1.34313e-07
1.16733e-07
1.08953e-07
1.06905e-07
1.10401e-07
1.26464e-07
1.99596e-07
2.02988e-07
1.25119e-07
1.08027e-07
1.04383e-07
1.0634e-07
1.13717e-07
1.29947e-07
1.66243e-07
2.58868e-07
4.01692e-07
6.21813e-07
4.89631e-07
3.15134e-07
3.06505e-07
3.57334e-07
4.26371e-07
4.89198e-07
5.11181e-07
4.54763e-07
4.19133e-07
4.16121e-07
4.47616e-07
5.00638e-07
4.80409e-07
4.19426e-07
3.5114e-07
2.99008e-07
3.06389e-07
4.75277e-07
6.06827e-07
8.61902e-07
8.74908e-07
1.15454e-06
1.55842e-06
2.22121e-06
2.91341e-06
3.48616e-06
3.66333e-06
2.97374e-06
2.33385e-06
2.34592e-06
2.98369e-06
3.61899e-06
3.44808e-06
2.88125e-06
2.20053e-06
1.52361e-06
1.11842e-06
8.54058e-07
8.45299e-07
1.15693e-06
1.61638e-06
2.08773e-06
2.58651e-06
3.15049e-06
3.74045e-06
4.31677e-06
4.82615e-06
5.21377e-06
5.49919e-06
5.54475e-06
5.26285e-06
4.85859e-06
4.33597e-06
3.7489e-06
3.15054e-06
2.57832e-06
2.07507e-06
1.60235e-06
1.14261e-06
4.15578e-09
7.36961e-09
1.02455e-08
1.27316e-08
1.48761e-08
1.67759e-08
1.86771e-08
2.12579e-08
2.54584e-08
3.3336e-08
3.34619e-08
2.65487e-08
2.24239e-08
1.96324e-08
1.74456e-08
1.53164e-08
1.30686e-08
1.05969e-08
7.74239e-09
4.19187e-09
8.71415e-09
1.13272e-08
1.42608e-08
1.66544e-08
1.85079e-08
2.00704e-08
2.22986e-08
2.79409e-08
4.04157e-08
6.49127e-08
6.60215e-08
4.1439e-08
2.92191e-08
2.39164e-08
2.17372e-08
2.00968e-08
1.80891e-08
1.54443e-08
1.21706e-08
8.9325e-09
1.74277e-08
1.87921e-08
2.27074e-08
2.52612e-08
2.69368e-08
2.76423e-08
2.90508e-08
3.468e-08
5.32511e-08
1.44363e-07
1.4833e-07
5.24352e-08
3.41497e-08
2.89834e-08
2.78757e-08
2.71838e-08
2.54928e-08
2.27667e-08
1.89856e-08
1.80412e-08
2.41726e-08
3.32174e-08
4.147e-08
4.33055e-08
4.2337e-08
4.01721e-08
3.88363e-08
4.3835e-08
7.93e-08
3.23295e-07
3.36711e-07
7.97112e-08
4.30977e-08
3.78363e-08
3.90671e-08
4.10858e-08
4.16233e-08
3.92736e-08
3.15745e-08
2.5728e-08
6.77028e-08
6.21753e-08
6.34741e-08
6.53011e-08
6.46708e-08
6.07034e-08
5.5176e-08
5.55996e-08
1.09237e-07
5.96513e-07
6.3048e-07
1.13996e-07
5.48461e-08
5.31245e-08
5.85528e-08
6.31541e-08
6.44013e-08
6.22661e-08
5.88122e-08
5.97059e-08
2.07423e-07
1.2325e-07
8.89928e-08
7.54406e-08
6.87329e-08
6.45985e-08
6.18779e-08
6.48163e-08
1.34232e-07
8.56586e-07
9.15141e-07
1.43147e-07
6.53128e-08
6.15571e-08
6.40134e-08
6.74959e-08
7.30934e-08
8.46846e-08
1.15292e-07
1.94329e-07
4.01547e-07
2.29958e-07
1.44586e-07
1.15473e-07
1.06445e-07
1.0589e-07
1.10401e-07
1.25858e-07
2.28263e-07
1.08462e-06
1.13021e-06
2.37273e-07
1.26538e-07
1.09979e-07
1.04905e-07
1.04571e-07
1.11981e-07
1.38191e-07
2.17906e-07
3.87562e-07
6.16603e-07
4.64898e-07
2.88759e-07
2.93436e-07
3.62572e-07
4.47282e-07
5.1118e-07
5.08139e-07
4.97516e-07
1.13459e-06
1.15503e-06
4.95575e-07
4.9943e-07
5.03133e-07
4.41106e-07
3.56792e-07
2.87083e-07
2.81535e-07
4.50766e-07
6.0174e-07
8.70615e-07
8.72676e-07
1.13035e-06
1.60486e-06
2.35122e-06
3.10854e-06
3.66333e-06
3.46336e-06
2.84732e-06
3.76412e-06
3.8022e-06
2.84032e-06
3.4165e-06
3.60752e-06
3.07083e-06
2.31525e-06
1.56632e-06
1.09189e-06
8.51886e-07
8.54145e-07
1.19513e-06
1.69211e-06
2.20689e-06
2.76601e-06
3.41566e-06
4.11199e-06
4.82615e-06
5.53829e-06
6.31827e-06
7.29837e-06
7.3769e-06
6.38983e-06
5.58881e-06
4.85652e-06
4.12777e-06
3.41901e-06
2.75911e-06
2.19467e-06
1.67823e-06
1.1808e-06
4.15535e-09
7.20235e-09
1.01004e-08
1.28347e-08
1.54632e-08
1.80685e-08
2.10761e-08
2.54584e-08
3.02659e-08
3.86841e-08
3.93806e-08
3.14999e-08
2.61639e-08
2.1228e-08
1.78079e-08
1.49596e-08
1.22772e-08
9.63584e-09
6.90749e-09
3.87149e-09
8.73816e-09
1.01262e-08
1.31391e-08
1.62427e-08
1.92401e-08
2.24091e-08
2.77762e-08
4.04156e-08
6.3104e-08
4.05587e-07
4.25027e-07
6.41706e-08
4.20675e-08
2.91277e-08
2.34646e-08
2.01417e-08
1.69466e-08
1.36538e-08
1.0433e-08
8.69068e-09
1.71913e-08
1.61768e-08
1.94101e-08
2.27362e-08
2.59319e-08
2.84297e-08
3.39203e-08
5.32509e-08
1.78717e-07
2.07418e-06
2.1186e-06
1.77441e-07
5.33497e-08
3.3657e-08
2.8187e-08
2.55954e-08
2.2636e-08
1.94238e-08
1.63699e-08
1.75239e-08
2.52493e-08
2.4715e-08
3.06695e-08
3.48147e-08
3.672e-08
3.74667e-08
4.29052e-08
7.92997e-08
4.30893e-07
4.55936e-06
4.62866e-06
4.3892e-07
8.18695e-08
4.27807e-08
3.66381e-08
3.55866e-08
3.36451e-08
2.97957e-08
2.4519e-08
2.58095e-08
4.83506e-08
4.57256e-08
5.13383e-08
5.47085e-08
5.42332e-08
5.20022e-08
5.43991e-08
1.09237e-07
8.74101e-07
7.82731e-06
7.92535e-06
9.22001e-07
1.16942e-07
5.42868e-08
5.04832e-08
5.24442e-08
5.30132e-08
4.98998e-08
4.29171e-08
4.00914e-08
1.88784e-07
1.05092e-07
7.34654e-08
6.36829e-08
6.14557e-08
6.13563e-08
6.59713e-08
1.34232e-07
1.26605e-06
1.05919e-05
1.07535e-05
1.35479e-06
1.45493e-07
6.69563e-08
6.13583e-08
6.08683e-08
6.20723e-08
7.02159e-08
9.85552e-08
1.76443e-07
3.79194e-07
1.96287e-07
1.20388e-07
9.83968e-08
9.85096e-08
1.08199e-07
1.26464e-07
2.28262e-07
1.58446e-06
1.18078e-05
1.20042e-05
1.69284e-06
2.41508e-07
1.28842e-07
1.08951e-07
9.80232e-08
9.63152e-08
1.16046e-07
1.87645e-07
3.65802e-07
5.9157e-07
4.24615e-07
2.55295e-07
2.61899e-07
3.3624e-07
4.15265e-07
4.54763e-07
4.97516e-07
1.55182e-06
1.03165e-05
1.0509e-05
1.63927e-06
4.98969e-07
4.48187e-07
4.09545e-07
3.30912e-07
2.5634e-07
2.48793e-07
4.10926e-07
5.77403e-07
8.44057e-07
8.1952e-07
9.99537e-07
1.46854e-06
2.19109e-06
2.79731e-06
2.97374e-06
2.84732e-06
3.96179e-06
8.51334e-06
8.61701e-06
4.0467e-06
2.85249e-06
2.92046e-06
2.75187e-06
2.15054e-06
1.42663e-06
9.56623e-07
7.99623e-07
8.28565e-07
1.18848e-06
1.69976e-06
2.23475e-06
2.82803e-06
3.54347e-06
4.33299e-06
5.21376e-06
6.31827e-06
7.90662e-06
9.98965e-06
1.01186e-05
8.03302e-06
6.40506e-06
5.26485e-06
4.36106e-06
3.55341e-06
2.82389e-06
2.22361e-06
1.68654e-06
1.17454e-06
4.27728e-09
7.46629e-09
1.05334e-08
1.36215e-08
1.69127e-08
2.0585e-08
2.58524e-08
3.33361e-08
3.86841e-08
4.10004e-08
4.13517e-08
3.85777e-08
3.2813e-08
2.4707e-08
1.91354e-08
1.54334e-08
1.22807e-08
9.44503e-09
6.69463e-09
3.79024e-09
9.05966e-09
1.01139e-08
1.32254e-08
1.68213e-08
2.11259e-08
2.65456e-08
4.02028e-08
6.49127e-08
4.05586e-07
5.73332e-07
5.74199e-07
3.84433e-07
6.56752e-08
4.20638e-08
2.7147e-08
2.14808e-08
1.69647e-08
1.32391e-08
1.00283e-08
8.96029e-09
1.79722e-08
1.58449e-08
1.84381e-08
2.16678e-08
2.6193e-08
3.09536e-08
4.76659e-08
1.44363e-07
2.07418e-06
1.43804e-06
1.44382e-06
1.99364e-06
1.40023e-07
4.78682e-08
3.05269e-08
2.55684e-08
2.13887e-08
1.83289e-08
1.59058e-08
1.82927e-08
2.71313e-08
2.30358e-08
2.63852e-08
2.97045e-08
3.37121e-08
3.90784e-08
6.67393e-08
3.23294e-07
4.55935e-06
2.73258e-06
2.74786e-06
4.46262e-06
3.25973e-07
6.90754e-08
3.86558e-08
3.29797e-08
2.88745e-08
2.56802e-08
2.28517e-08
2.72988e-08
4.05144e-08
3.70223e-08
4.15568e-08
4.29769e-08
4.57576e-08
5.02839e-08
8.76474e-08
5.96511e-07
7.82729e-06
4.48838e-06
4.51082e-06
7.77952e-06
6.32142e-07
9.27566e-08
5.0316e-08
4.48061e-08
4.14251e-08
3.97365e-08
3.58401e-08
3.56994e-08
1.72109e-07
9.73931e-08
6.36217e-08
5.36407e-08
5.80381e-08
6.75321e-08
1.15231e-07
8.56582e-07
1.05919e-05
6.55123e-06
6.57874e-06
1.06999e-05
9.21044e-07
1.21834e-07
6.85393e-08
5.83842e-08
5.31215e-08
6.15788e-08
9.21551e-08
1.61283e-07
3.51633e-07
1.77885e-07
1.05426e-07
8.67594e-08
9.56145e-08
1.22011e-07
1.99596e-07
1.08462e-06
1.18078e-05
8.52534e-06
8.55181e-06
1.20624e-05
1.15946e-06
2.10001e-07
1.25897e-07
9.78378e-08
8.66963e-08
1.03165e-07
1.725e-07
3.40416e-07
5.48993e-07
3.7554e-07
2.14658e-07
2.12117e-07
2.79411e-07
3.46839e-07
4.19133e-07
1.13459e-06
1.03165e-05
9.62186e-06
9.64173e-06
1.06763e-05
1.19653e-06
4.19441e-07
3.43941e-07
2.76776e-07
2.10343e-07
2.11823e-07
3.64949e-07
5.38095e-07
7.80443e-07
7.11003e-07
7.62495e-07
1.16448e-06
1.75623e-06
2.09549e-06
2.33385e-06
3.76412e-06
8.51333e-06
9.80804e-06
9.84318e-06
8.73069e-06
3.84653e-06
2.35262e-06
2.0777e-06
1.72166e-06
1.14395e-06
7.412e-07
6.9801e-07
7.69024e-07
1.11836e-06
1.61738e-06
2.13727e-06
2.73442e-06
3.49261e-06
4.36611e-06
5.49919e-06
7.29836e-06
9.98964e-06
1.10394e-05
1.11427e-05
1.01972e-05
7.44188e-06
5.58838e-06
4.41588e-06
3.51337e-06
2.73719e-06
2.1274e-06
1.60575e-06
1.10635e-06
4.31154e-09
7.54425e-09
1.0578e-08
1.36071e-08
1.68262e-08
2.04722e-08
2.57794e-08
3.34621e-08
3.93808e-08
4.13518e-08
4.01921e-08
3.78996e-08
3.24844e-08
2.45088e-08
1.90196e-08
1.54271e-08
1.23496e-08
9.56084e-09
6.81118e-09
3.8505e-09
8.95078e-09
1.02129e-08
1.31919e-08
1.66371e-08
2.07814e-08
2.61346e-08
4.00975e-08
6.60219e-08
4.25029e-07
5.742e-07
5.81238e-07
4.14797e-07
6.92995e-08
4.34956e-08
2.72358e-08
2.12783e-08
1.67095e-08
1.30453e-08
9.95573e-09
8.90459e-09
1.74442e-08
1.54979e-08
1.78575e-08
2.09199e-08
2.54372e-08
3.00976e-08
4.75494e-08
1.48331e-07
2.11861e-06
1.44383e-06
1.45589e-06
2.08009e-06
1.4544e-07
4.81042e-08
2.97895e-08
2.47786e-08
2.05355e-08
1.76384e-08
1.54417e-08
1.78014e-08
2.62138e-08
2.2318e-08
2.50842e-08
2.80144e-08
3.21935e-08
3.78461e-08
6.72438e-08
3.36714e-07
4.62868e-06
2.74786e-06
2.7491e-06
4.59259e-06
3.39504e-07
6.9135e-08
3.75614e-08
3.15982e-08
2.73994e-08
2.45012e-08
2.21177e-08
2.62468e-08
3.87884e-08
3.46213e-08
3.81708e-08
3.93679e-08
4.31848e-08
4.88829e-08
9.00358e-08
6.30486e-07
7.92538e-06
4.51082e-06
4.47584e-06
7.93234e-06
6.63935e-07
9.37456e-08
4.91088e-08
4.29189e-08
3.88957e-08
3.70351e-08
3.38289e-08
3.40754e-08
1.6585e-07
9.28877e-08
5.94326e-08
5.04657e-08
5.66447e-08
6.74696e-08
1.20041e-07
9.15151e-07
1.07535e-05
6.57875e-06
6.49221e-06
1.08898e-05
9.52532e-07
1.23379e-07
6.80401e-08
5.73439e-08
5.12524e-08
5.84217e-08
8.77929e-08
1.54914e-07
3.48059e-07
1.73771e-07
1.01986e-07
8.38236e-08
9.32922e-08
1.21258e-07
2.02989e-07
1.13022e-06
1.20043e-05
8.55181e-06
8.41155e-06
1.22423e-05
1.16831e-06
2.08064e-07
1.24071e-07
9.58331e-08
8.43895e-08
1.00538e-07
1.69021e-07
3.37619e-07
5.4779e-07
3.73196e-07
2.13347e-07
2.1126e-07
2.77604e-07
3.44195e-07
4.16122e-07
1.15504e-06
1.05091e-05
9.64174e-06
9.46643e-06
1.08053e-05
1.19107e-06
4.17238e-07
3.44196e-07
2.77727e-07
2.11798e-07
2.1196e-07
3.63033e-07
5.38861e-07
7.81757e-07
7.14441e-07
7.73027e-07
1.18934e-06
1.77835e-06
2.1144e-06
2.34592e-06
3.80221e-06
8.61705e-06
9.84319e-06
9.67757e-06
8.78546e-06
3.8622e-06
2.36419e-06
2.11332e-06
1.7557e-06
1.16944e-06
7.54157e-07
7.03413e-07
7.7294e-07
1.12322e-06
1.62649e-06
2.15069e-06
2.75371e-06
3.5167e-06
4.39784e-06
5.54477e-06
7.37692e-06
1.01186e-05
1.11427e-05
1.10036e-05
1.01793e-05
7.43261e-06
5.58419e-06
4.42154e-06
3.52257e-06
2.74619e-06
2.13375e-06
1.61205e-06
1.11221e-06
4.38576e-09
7.75172e-09
1.06913e-08
1.34255e-08
1.60899e-08
1.88088e-08
2.1991e-08
2.65489e-08
3.15e-08
3.85778e-08
3.78996e-08
3.02735e-08
2.50264e-08
2.03344e-08
1.72443e-08
1.46887e-08
1.22497e-08
9.79214e-09
7.13359e-09
3.9889e-09
8.73714e-09
1.07134e-08
1.35566e-08
1.64041e-08
1.92175e-08
2.24019e-08
2.80259e-08
4.14393e-08
6.41709e-08
3.84433e-07
4.14797e-07
6.59827e-08
4.44562e-08
2.90765e-08
2.27254e-08
1.92356e-08
1.62194e-08
1.32385e-08
1.03445e-08
8.68613e-09
1.66411e-08
1.56321e-08
1.85046e-08
2.161e-08
2.44864e-08
2.69331e-08
3.25949e-08
5.24358e-08
1.77442e-07
1.99364e-06
2.08009e-06
1.79814e-07
5.25609e-08
3.19936e-08
2.61248e-08
2.35064e-08
2.06976e-08
1.80626e-08
1.55276e-08
1.70243e-08
2.42644e-08
2.31245e-08
2.8068e-08
3.15847e-08
3.36441e-08
3.47058e-08
4.08133e-08
7.97122e-08
4.38923e-07
4.46262e-06
4.59259e-06
4.55575e-07
8.14467e-08
4.058e-08
3.38516e-08
3.2485e-08
3.0548e-08
2.74832e-08
2.31051e-08
2.43616e-08
4.0246e-08
4.02621e-08
4.67968e-08
4.97336e-08
4.92912e-08
4.79637e-08
5.20235e-08
1.13997e-07
9.22008e-07
7.77953e-06
7.93234e-06
9.55306e-07
1.19057e-07
5.21989e-08
4.75679e-08
4.89496e-08
4.93206e-08
4.65462e-08
3.98005e-08
3.39115e-08
1.77724e-07
9.57946e-08
6.68569e-08
5.92897e-08
5.86361e-08
5.95751e-08
6.5348e-08
1.43149e-07
1.3548e-06
1.06999e-05
1.08898e-05
1.41437e-06
1.50843e-07
6.67256e-08
6.03748e-08
5.91702e-08
5.93095e-08
6.55358e-08
9.0668e-08
1.65231e-07
3.74705e-07
1.87817e-07
1.12797e-07
9.17212e-08
9.29536e-08
1.0435e-07
1.25119e-07
2.37274e-07
1.69286e-06
1.20624e-05
1.22423e-05
1.75101e-06
2.40135e-07
1.23918e-07
1.03166e-07
9.20236e-08
9.04259e-08
1.1007e-07
1.81495e-07
3.63882e-07
5.92254e-07
4.25779e-07
2.50698e-07
2.5454e-07
3.27365e-07
4.06251e-07
4.47616e-07
4.95576e-07
1.63928e-06
1.06763e-05
1.08053e-05
1.69077e-06
4.97284e-07
4.44198e-07
4.00155e-07
3.21747e-07
2.5085e-07
2.46997e-07
4.14017e-07
5.83561e-07
8.48971e-07
8.3016e-07
1.01008e-06
1.47794e-06
2.19584e-06
2.79662e-06
2.9837e-06
2.84032e-06
4.04671e-06
8.73069e-06
8.78546e-06
4.07947e-06
2.86383e-06
2.99532e-06
2.76592e-06
2.14713e-06
1.43542e-06
9.64711e-07
8.17511e-07
8.40292e-07
1.19612e-06
1.71207e-06
2.25085e-06
2.84781e-06
3.56864e-06
4.36693e-06
5.26286e-06
6.38985e-06
8.03304e-06
1.01972e-05
1.01793e-05
8.0504e-06
6.41412e-06
5.28204e-06
4.37157e-06
3.55932e-06
2.82956e-06
2.23133e-06
1.69636e-06
1.18464e-06
4.60037e-09
8.4024e-09
1.13775e-08
1.38941e-08
1.61073e-08
1.80867e-08
1.99984e-08
2.2424e-08
2.6164e-08
3.28131e-08
3.24845e-08
2.50264e-08
2.08448e-08
1.84026e-08
1.65623e-08
1.47374e-08
1.27725e-08
1.05497e-08
7.85372e-09
4.26666e-09
8.79874e-09
1.24522e-08
1.5289e-08
1.75156e-08
1.9326e-08
2.09988e-08
2.33764e-08
2.92192e-08
4.20676e-08
6.56754e-08
6.92996e-08
4.44563e-08
2.99006e-08
2.33252e-08
2.07258e-08
1.89546e-08
1.71049e-08
1.4836e-08
1.20128e-08
8.79187e-09
1.67926e-08
1.7795e-08
2.16071e-08
2.44432e-08
2.59301e-08
2.68053e-08
2.83338e-08
3.41499e-08
5.335e-08
1.40023e-07
1.4544e-07
5.2561e-08