/*--------------------------------*- C++ -*----------------------------------*\
| =========                 |                                                 |
| \\      /  F ield         | OpenFOAM: The Open Source CFD Toolbox           |
|  \\    /   O peration     | Version:  1.7.1                                 |
|   \\  /    A nd           | Web:      www.OpenFOAM.com                      |
|    \\/     M anipulation  |                                                 |
\*---------------------------------------------------------------------------*/
FoamFile
{
    version     2.0;
    format      ascii;
    class       volScalarField;
    location    "2000";
    object      k;
}
// * * * * * * * * * * * * * * * * * * * * * * * * * * * * * * * * * * * * * //

dimensions      [0 2 -2 0 0 0 0];

internalField   nonuniform List<scalar> 
4000
(
2.48381e-06
2.42086e-06
2.41459e-06
2.29736e-06
2.19712e-06
2.09705e-06
1.97529e-06
1.88416e-06
1.88362e-06
1.92002e-06
1.93115e-06
1.95468e-06
2.01901e-06
2.09614e-06
2.18805e-06
2.30947e-06
2.41401e-06
2.54767e-06
2.5556e-06
2.47073e-06
5.41044e-06
3.87555e-06
3.92413e-06
3.83788e-06
3.61562e-06
3.25042e-06
3.14691e-06
3.09024e-06
3.09489e-06
3.16995e-06
3.14451e-06
3.09434e-06
3.1098e-06
3.14975e-06
3.37713e-06
3.77475e-06
3.97207e-06
4.12209e-06
4.09126e-06
4.42295e-06
2.07814e-05
1.66103e-05
1.1206e-05
6.5223e-06
5.03434e-06
4.97239e-06
4.97634e-06
4.90651e-06
4.86169e-06
5.00748e-06
4.90956e-06
4.75756e-06
4.78609e-06
4.86229e-06
5.03243e-06
5.10629e-06
5.87481e-06
1.03763e-05
1.56231e-05
1.93812e-05
2.77086e-05
2.5685e-05
2.24457e-05
1.83972e-05
1.42339e-05
1.05384e-05
6.67991e-06
6.09797e-06
6.282e-06
6.59027e-06
6.44394e-06
6.12022e-06
6.01756e-06
6.09927e-06
9.9644e-06
1.39822e-05
1.84297e-05
2.22882e-05
2.50855e-05
2.68661e-05
3.1375e-05
3.04256e-05
2.80633e-05
2.48861e-05
2.11738e-05
1.75801e-05
1.49801e-05
1.21191e-05
9.68346e-06
8.61692e-06
8.38827e-06
8.60009e-06
1.11931e-05
1.47841e-05
1.74586e-05
2.09559e-05
2.46079e-05
2.76686e-05
2.97923e-05
3.05536e-05
3.39318e-05
3.44202e-05
3.35999e-05
3.19961e-05
3.03283e-05
2.87829e-05
2.72125e-05
2.55551e-05
2.40059e-05
2.25838e-05
2.20538e-05
2.30956e-05
2.47106e-05
2.65458e-05
2.82823e-05
2.98725e-05
3.15892e-05
3.30487e-05
3.36639e-05
3.30768e-05
3.60885e-05
3.8279e-05
3.95884e-05
4.03666e-05
4.08589e-05
4.10088e-05
4.06355e-05
3.96988e-05
3.82172e-05
3.63516e-05
3.61213e-05
3.79426e-05
3.93222e-05
4.01874e-05
4.05045e-05
4.02938e-05
3.97354e-05
3.88528e-05
3.74115e-05
3.52011e-05
3.83152e-05
4.2335e-05
4.58467e-05
4.86727e-05
5.09031e-05
5.24431e-05
5.3134e-05
5.28396e-05
5.14042e-05
4.89139e-05
4.88556e-05
5.14663e-05
5.27408e-05
5.28546e-05
5.20042e-05
5.03218e-05
4.79615e-05
4.50083e-05
4.13887e-05
3.74108e-05
4.09184e-05
4.70552e-05
5.26635e-05
5.73599e-05
6.1247e-05
6.42146e-05
6.60495e-05
6.64977e-05
6.51437e-05
6.18351e-05
6.19164e-05
6.54178e-05
6.65727e-05
6.59033e-05
6.38699e-05
6.07207e-05
5.66684e-05
5.18262e-05
4.61095e-05
4.00107e-05
4.44137e-05
5.30971e-05
6.09183e-05
6.73614e-05
7.27634e-05
7.71397e-05
8.0367e-05
8.21299e-05
8.18297e-05
7.85885e-05
7.88268e-05
8.21997e-05
8.23141e-05
8.03411e-05
7.69121e-05
7.23414e-05
6.6749e-05
6.01289e-05
5.21808e-05
4.35137e-05
2.42086e-06
3.05738e-06
3.30305e-06
3.38646e-06
3.33861e-06
3.16723e-06
2.9551e-06
2.75988e-06
2.71733e-06
2.78321e-06
2.80394e-06
2.85772e-06
3.01758e-06
3.20586e-06
3.37339e-06
3.55191e-06
3.57336e-06
3.44044e-06
3.19793e-06
2.48691e-06
3.87555e-06
6.30166e-06
6.91489e-06
7.38097e-06
7.62234e-06
6.93104e-06
6.64152e-06
6.14383e-06
5.84496e-06
5.94527e-06
5.95408e-06
6.00909e-06
6.45337e-06
7.0365e-06
7.46139e-06
7.94152e-06
7.54249e-06
6.82911e-06
6.30774e-06
4.05871e-06
1.66103e-05
1.52558e-05
1.1914e-05
1.12162e-05
1.18673e-05
9.65076e-06
9.02845e-06
8.40489e-06
7.97072e-06
8.09914e-06
7.9259e-06
7.66233e-06
7.96407e-06
8.67641e-06
9.44485e-06
1.12641e-05
1.07695e-05
1.07801e-05
1.38176e-05
1.5132e-05
2.5685e-05
3.10477e-05
2.70927e-05
2.18628e-05
1.86176e-05
1.57181e-05
1.32803e-05
1.12128e-05
9.57185e-06
9.56319e-06
9.37271e-06
8.99376e-06
1.00752e-05
1.22966e-05
1.48886e-05
1.81777e-05
2.15416e-05
2.61775e-05
2.95068e-05
2.47296e-05
3.04256e-05
3.27744e-05
3.10831e-05
2.74085e-05
2.23624e-05
1.82995e-05
1.56072e-05
1.36239e-05
1.17291e-05
1.16384e-05
1.14587e-05
1.10072e-05
1.30029e-05
1.52698e-05
1.7857e-05
2.19668e-05
2.69231e-05
3.03543e-05
3.18133e-05
2.94696e-05
3.44202e-05
3.59263e-05
3.54731e-05
3.36016e-05
3.08803e-05
2.67683e-05
2.32291e-05
2.01393e-05
1.79744e-05
1.71965e-05
1.66762e-05
1.68443e-05
1.89208e-05
2.21786e-05
2.60069e-05
3.01451e-05
3.30059e-05
3.47465e-05
3.50003e-05
3.34823e-05
3.8279e-05
4.03912e-05
4.1545e-05
4.1918e-05
4.1937e-05
4.04944e-05
3.6244e-05
3.14345e-05
2.75159e-05
2.53893e-05
2.48864e-05
2.64519e-05
3.02184e-05
3.52493e-05
3.94825e-05
4.10329e-05
4.1087e-05
4.06877e-05
3.94315e-05
3.73831e-05
4.2335e-05
4.64599e-05
4.96014e-05
5.21965e-05
5.50438e-05
5.70381e-05
5.70321e-05
5.48804e-05
5.09124e-05
4.58243e-05
4.54336e-05
5.07343e-05
5.45177e-05
5.64051e-05
5.62009e-05
5.41207e-05
5.1295e-05
4.86791e-05
4.54491e-05
4.14852e-05
4.70552e-05
5.54361e-05
6.22185e-05
6.81553e-05
7.37825e-05
7.83229e-05
8.0604e-05
8.00738e-05
7.55878e-05
6.68691e-05
6.70266e-05
7.62322e-05
8.03474e-05
8.05527e-05
7.80142e-05
7.32507e-05
6.74731e-05
6.14193e-05
5.43959e-05
4.6207e-05
5.30971e-05
6.3433e-05
7.31257e-05
8.15633e-05
8.90227e-05
9.54121e-05
0.000100439
0.000103559
0.000103878
0.000100508
0.000100893
0.000104396
0.000103892
0.000100557
9.53256e-05
8.87411e-05
8.1091e-05
7.24785e-05
6.26561e-05
5.23037e-05
2.41459e-06
3.30305e-06
3.74042e-06
4.03883e-06
4.01278e-06
3.82436e-06
3.62254e-06
3.4373e-06
3.40463e-06
3.50124e-06
3.51236e-06
3.54002e-06
3.6918e-06
3.89325e-06
4.07636e-06
4.2419e-06
4.25859e-06
3.89859e-06
3.39388e-06
2.4798e-06
3.92413e-06
6.91488e-06
8.08945e-06
9.24147e-06
9.20635e-06
8.39248e-06
8.11978e-06
7.64939e-06
7.49539e-06
7.69816e-06
7.6482e-06
7.56493e-06
7.88855e-06
8.49576e-06
8.96649e-06
9.38705e-06
9.3654e-06
8.125e-06
6.91588e-06
4.16596e-06
1.12059e-05
1.1914e-05
1.18582e-05
1.36365e-05
1.38606e-05
1.15459e-05
1.10123e-05
1.01112e-05
9.60917e-06
9.65327e-06
9.41028e-06
9.18418e-06
9.63046e-06
1.06313e-05
1.13657e-05
1.30222e-05
1.33885e-05
1.14219e-05
1.08086e-05
9.72663e-06
2.24457e-05
2.70927e-05
2.46908e-05
2.18748e-05
2.0339e-05
1.83909e-05
1.62626e-05
1.37115e-05
1.1698e-05
1.11752e-05
1.08342e-05
1.0936e-05
1.23462e-05
1.49072e-05
1.73161e-05
1.96459e-05
2.14334e-05
2.38977e-05
2.5693e-05
2.15704e-05
2.80633e-05
3.10831e-05
2.97151e-05
2.61283e-05
2.20731e-05
1.88384e-05
1.67632e-05
1.5471e-05
1.43887e-05
1.35843e-05
1.30209e-05
1.36883e-05
1.49516e-05
1.64262e-05
1.83459e-05
2.15194e-05
2.55243e-05
2.88221e-05
2.99271e-05
2.70101e-05
3.35999e-05
3.54731e-05
3.41444e-05
3.13729e-05
2.74315e-05
2.37126e-05
2.05987e-05
1.79142e-05
1.58561e-05
1.47677e-05
1.42515e-05
1.4915e-05
1.692e-05
1.96842e-05
2.29264e-05
2.67155e-05
3.0657e-05
3.32818e-05
3.44163e-05
3.25542e-05
3.95884e-05
4.1545e-05
4.1143e-05
3.93193e-05
3.63108e-05
3.26138e-05
2.87853e-05
2.49891e-05
2.16894e-05
1.95796e-05
1.90495e-05
2.05158e-05
2.36543e-05
2.76285e-05
3.16062e-05
3.54336e-05
3.84609e-05
4.0183e-05
4.05134e-05
3.86637e-05
4.58467e-05
4.96014e-05
5.25885e-05
5.38376e-05
5.33754e-05
5.00141e-05
4.66746e-05
4.36392e-05
3.96413e-05
3.45227e-05
3.41923e-05
3.87042e-05
4.23759e-05
4.53949e-05
4.89159e-05
5.23005e-05
5.27899e-05
5.14583e-05
4.84911e-05
4.5001e-05
5.26635e-05
6.22185e-05
7.52472e-05
8.83397e-05
9.97865e-05
0.000108899
0.000112929
0.000111912
0.000103532
8.6314e-05
8.69097e-05
0.000103951
0.000111844
0.000112566
0.00010835
9.89104e-05
8.72202e-05
7.39666e-05
6.09691e-05
5.18353e-05
6.09183e-05
7.31256e-05
8.45815e-05
9.48352e-05
0.000104144
0.000112385
0.000119127
0.000123626
0.000124674
0.00012104
0.000121552
0.000125286
0.000124031
0.000119313
0.000112373
0.000103941
9.44424e-05
8.40194e-05
7.2441e-05
6.0182e-05
2.29736e-06
3.38646e-06
4.03883e-06
4.36889e-06
4.33564e-06
4.2281e-06
4.09679e-06
3.97328e-06
3.99523e-06
4.157e-06
4.15477e-06
4.1197e-06
4.21609e-06
4.37377e-06
4.50897e-06
4.60137e-06
4.60301e-06
4.27998e-06
3.55943e-06
2.37831e-06
3.83788e-06
7.38098e-06
9.24148e-06
1.00931e-05
9.49674e-06
9.11525e-06
8.97367e-06
8.7007e-06
8.85543e-06
9.26733e-06
9.17021e-06
8.8333e-06
8.89764e-06
9.35862e-06
9.77522e-06
9.95324e-06
1.01659e-05
9.72676e-06
7.91277e-06
4.10135e-06
6.52221e-06
1.12162e-05
1.36365e-05
1.5241e-05
1.36971e-05
1.24294e-05
1.21169e-05
1.12217e-05
1.09774e-05
1.1058e-05
1.08007e-05
1.05285e-05
1.08522e-05
1.174e-05
1.24252e-05
1.32004e-05
1.46188e-05
1.4039e-05
1.1706e-05
5.68403e-06
1.83972e-05
2.18628e-05
2.18748e-05
2.14935e-05
2.10381e-05
1.93687e-05
1.71394e-05
1.46889e-05
1.32109e-05
1.25261e-05
1.21235e-05
1.23519e-05
1.35273e-05
1.57429e-05
1.82656e-05
2.01034e-05
2.1002e-05
2.14703e-05
2.11159e-05
1.75239e-05
2.48861e-05
2.74084e-05
2.61283e-05
2.36374e-05
2.11184e-05
1.90144e-05
1.77973e-05
1.70351e-05
1.60966e-05
1.46053e-05
1.39771e-05
1.52172e-05
1.6466e-05
1.75467e-05
1.86774e-05
2.05627e-05
2.298e-05
2.52377e-05
2.62525e-05
2.38178e-05
3.1996e-05
3.36016e-05
3.13729e-05
2.80982e-05
2.4649e-05
2.16983e-05
1.93559e-05
1.74463e-05
1.59859e-05
1.51083e-05
1.47911e-05
1.53723e-05
1.67365e-05
1.86393e-05
2.09927e-05
2.39223e-05
2.72757e-05
3.03676e-05
3.24389e-05
3.09164e-05
4.03666e-05
4.1918e-05
3.93193e-05
3.54837e-05
3.18605e-05
2.87336e-05
2.59442e-05
2.33351e-05
2.09082e-05
1.92842e-05
1.87913e-05
1.97929e-05
2.20844e-05
2.48464e-05
2.77918e-05
3.10139e-05
3.45603e-05
3.82911e-05
4.09027e-05
3.9444e-05
4.86727e-05
5.21964e-05
5.38376e-05
5.3087e-05
5.10794e-05
4.95305e-05
4.80107e-05
4.60877e-05
4.22251e-05
3.63246e-05
3.59873e-05
4.09826e-05
4.45319e-05
4.65445e-05
4.82751e-05
4.98882e-05
5.17928e-05
5.25777e-05
5.11344e-05
4.78356e-05
5.73599e-05
6.81553e-05
8.83397e-05
0.000112594
0.000129854
0.000139149
0.000146113
0.00014774
0.000137614
0.000116016
0.000117437
0.000137807
0.000147205
0.000145473
0.000138601
0.000128761
0.000110996
8.66987e-05
6.68339e-05
5.6542e-05
6.73613e-05
8.15633e-05
9.48352e-05
0.000106981
0.000118253
0.000128581
0.000137421
0.000143717
0.000145869
0.000142645
0.00014332
0.000146558
0.000144175
0.00013765
0.000128612
0.000118094
0.000106624
9.43221e-05
8.09413e-05
6.66681e-05
2.19712e-06
3.33862e-06
4.01278e-06
4.33564e-06
4.44684e-06
4.4784e-06
4.44127e-06
4.40833e-06
4.52487e-06
4.80366e-06
4.78715e-06
4.64746e-06
4.65098e-06
4.72735e-06
4.77133e-06
4.73318e-06
4.59725e-06
4.23757e-06
3.53592e-06
2.29697e-06
3.61562e-06
7.62234e-06
9.20635e-06
9.49675e-06
9.43131e-06
9.5477e-06
9.47815e-06
9.50004e-06
1.00536e-05
1.08773e-05
1.07406e-05
9.98537e-06
9.71237e-06
9.92727e-06
1.02451e-05
1.02521e-05
1.0077e-05
9.57423e-06
7.99401e-06
3.88881e-06
5.03434e-06
1.18673e-05
1.38606e-05
1.36971e-05
1.29626e-05
1.29983e-05
1.25285e-05
1.20387e-05
1.22523e-05
1.26975e-05
1.24621e-05
1.17402e-05
1.16538e-05
1.22645e-05
1.30169e-05
1.31917e-05
1.34051e-05
1.33275e-05
1.15532e-05
5.36495e-06
1.42339e-05
1.86177e-05
2.0339e-05
2.10381e-05
2.05725e-05
1.89274e-05
1.67635e-05
1.49445e-05
1.41725e-05
1.39611e-05
1.36217e-05
1.33879e-05
1.40086e-05
1.56712e-05
1.79345e-05
1.96772e-05
2.027e-05
1.98508e-05
1.80537e-05
1.3416e-05
2.11738e-05
2.23624e-05
2.2073e-05
2.11184e-05
1.99545e-05
1.90287e-05
1.85497e-05
1.7918e-05
1.68317e-05
1.59076e-05
1.54797e-05
1.59246e-05
1.72052e-05
1.82857e-05
1.89458e-05
1.96331e-05
2.05649e-05
2.13275e-05
2.13661e-05
2.01362e-05
3.03283e-05
3.08803e-05
2.74315e-05
2.4649e-05
2.21856e-05
2.01449e-05
1.85875e-05
1.74641e-05
1.68728e-05
1.72595e-05
1.72388e-05
1.65373e-05
1.70246e-05
1.80864e-05
1.95968e-05
2.15597e-05
2.38857e-05
2.64544e-05
2.9664e-05
2.92711e-05
4.08589e-05
4.1937e-05
3.63108e-05
3.18605e-05
2.88269e-05
2.65775e-05
2.48149e-05
2.3419e-05
2.24403e-05
2.24764e-05
2.21235e-05
2.15205e-05
2.23868e-05
2.38924e-05
2.57781e-05
2.80946e-05
3.10411e-05
3.52013e-05
4.08717e-05
3.9953e-05
5.0903e-05
5.50438e-05
5.33754e-05
5.10794e-05
5.15941e-05
5.26367e-05
5.34379e-05
5.32198e-05
5.00964e-05
4.41992e-05
4.37531e-05
4.87918e-05
5.17106e-05
5.20683e-05
5.14604e-05
5.05248e-05
4.99049e-05
5.20978e-05
5.40113e-05
5.00728e-05
6.1247e-05
7.37824e-05
9.97865e-05
0.000129854
0.000151158
0.000171847
0.000186622
0.000192346
0.000180766
0.000152493
0.000153576
0.000180648
0.00019145
0.000185386
0.000170475
0.000150091
0.000127546
9.80622e-05
7.24333e-05
6.04318e-05
7.27634e-05
8.90227e-05
0.000104144
0.000118253
0.000132053
0.000145221
0.000156739
0.000165424
0.000169536
0.000167918
0.000168695
0.000170345
0.000165975
0.000157021
0.000145276
0.000131932
0.000117907
0.000103658
8.84389e-05
7.21005e-05
2.09705e-06
3.16723e-06
3.82436e-06
4.22811e-06
4.4784e-06
4.6225e-06
4.69118e-06
4.77685e-06
5.02113e-06
5.4779e-06
5.45657e-06
5.15664e-06
5.02322e-06
4.97775e-06
4.90735e-06
4.75011e-06
4.48784e-06
4.06238e-06
3.36393e-06
2.16759e-06
3.25042e-06
6.93105e-06
8.39249e-06
9.11526e-06
9.5477e-06
9.7494e-06
9.803e-06
1.01688e-05
1.11843e-05
1.25398e-05
1.23993e-05
1.11441e-05
1.0444e-05
1.03323e-05
1.04169e-05
1.0329e-05
9.9543e-06
9.15566e-06
7.51861e-06
3.4809e-06
4.97241e-06
9.65078e-06
1.15459e-05
1.24294e-05
1.29983e-05
1.30062e-05
1.25759e-05
1.25171e-05
1.31217e-05
1.38621e-05
1.36017e-05
1.2629e-05
1.22161e-05
1.24853e-05
1.3001e-05
1.31949e-05
1.27733e-05
1.17998e-05
9.91059e-06
5.29195e-06
1.05384e-05
1.57181e-05
1.83909e-05
1.93687e-05
1.89274e-05
1.75342e-05
1.5918e-05
1.48264e-05
1.46472e-05
1.50694e-05
1.47585e-05
1.39392e-05
1.41328e-05
1.52075e-05
1.67785e-05
1.82036e-05
1.87065e-05
1.77515e-05
1.49852e-05
9.57632e-06
1.758e-05
1.82995e-05
1.88384e-05
1.90144e-05
1.90287e-05
1.90327e-05
1.87539e-05
1.79365e-05
1.69573e-05
1.6896e-05
1.66341e-05
1.6195e-05
1.72104e-05
1.83943e-05
1.90178e-05
1.90645e-05
1.8817e-05
1.83758e-05
1.76128e-05
1.69008e-05
2.87828e-05
2.67683e-05
2.37126e-05
2.16983e-05
2.01449e-05
1.8919e-05
1.80438e-05
1.75995e-05
1.77772e-05
1.95656e-05
1.96992e-05
1.76266e-05
1.73916e-05
1.77769e-05
1.85779e-05
1.97199e-05
2.11436e-05
2.29686e-05
2.57243e-05
2.77504e-05
4.10088e-05
4.04943e-05
3.26138e-05
2.87336e-05
2.65775e-05
2.52175e-05
2.43676e-05
2.40899e-05
2.48146e-05
2.75469e-05
2.7473e-05
2.4227e-05
2.3387e-05
2.37146e-05
2.46418e-05
2.60335e-05
2.80948e-05
3.16924e-05
3.91511e-05
4.01062e-05
5.2443e-05
5.7038e-05
5.0014e-05
4.95304e-05
5.26367e-05
5.63069e-05
5.94535e-05
6.05907e-05
5.72623e-05
5.10582e-05
5.05786e-05
5.60943e-05
5.92926e-05
5.8342e-05
5.53964e-05
5.1796e-05
4.8529e-05
4.86702e-05
5.59479e-05
5.16125e-05
6.42146e-05
7.83229e-05
0.000108899
0.000139149
0.000171847
0.000201838
0.000223926
0.000231371
0.00021041
0.000166096
0.000166937
0.000210081
0.000229903
0.00022229
0.000200546
0.000170762
0.000136909
0.000107228
7.69451e-05
6.33966e-05
7.71396e-05
9.54121e-05
0.000112385
0.000128581
0.000145221
0.000161297
0.000175748
0.000187212
0.00019387
0.000194856
0.000195808
0.000194886
0.000187905
0.000176138
0.000161442
0.000145158
0.00012827
0.000111919
9.48497e-05
7.64959e-05
1.97529e-06
2.9551e-06
3.62254e-06
4.0968e-06
4.44127e-06
4.69118e-06
4.89065e-06
5.13233e-06
5.56523e-06
6.3784e-06
6.36365e-06
5.72231e-06
5.37037e-06
5.14532e-06
4.92751e-06
4.65293e-06
4.29855e-06
3.83062e-06
3.15544e-06
2.03373e-06
3.14692e-06
6.64154e-06
8.11979e-06
8.97368e-06
9.47816e-06
9.803e-06
1.01594e-05
1.10041e-05
1.27236e-05
1.56074e-05
1.55324e-05
1.27721e-05
1.13396e-05
1.07322e-05
1.04592e-05
1.01409e-05
9.63296e-06
8.77677e-06
7.21081e-06
3.26783e-06
4.97635e-06
9.02847e-06
1.10123e-05
1.21169e-05
1.25285e-05
1.25759e-05
1.26142e-05
1.30765e-05
1.42561e-05
1.61281e-05
1.59545e-05
1.3838e-05
1.28374e-05
1.26153e-05
1.26761e-05
1.26237e-05
1.22597e-05
1.1348e-05
9.42824e-06
5.11521e-06
6.6799e-06
1.32803e-05
1.62627e-05
1.71394e-05
1.67635e-05
1.5918e-05
1.5084e-05
1.47606e-05
1.54752e-05
1.77521e-05
1.75729e-05
1.49119e-05
1.42823e-05
1.46985e-05
1.54915e-05
1.62728e-05
1.66608e-05
1.60143e-05
1.33055e-05
6.1024e-06
1.49801e-05
1.56072e-05
1.67632e-05
1.77973e-05
1.85497e-05
1.87539e-05
1.82696e-05
1.74051e-05
1.72673e-05
2.0145e-05
2.01813e-05
1.67559e-05
1.686e-05
1.78752e-05
1.86361e-05
1.86555e-05
1.79289e-05
1.67121e-05
1.52998e-05
1.44716e-05
2.72124e-05
2.3229e-05
2.05987e-05
1.93559e-05
1.85875e-05
1.80438e-05
1.77341e-05
1.77621e-05
1.88347e-05
2.40133e-05
2.44466e-05
1.8817e-05
1.77218e-05
1.76919e-05
1.79325e-05
1.83797e-05
1.90171e-05
2.00524e-05
2.23452e-05
2.61471e-05
4.06354e-05
3.6244e-05
2.87853e-05
2.59442e-05
2.48149e-05
2.43676e-05
2.43789e-05
2.5143e-05
2.77904e-05
3.55552e-05
3.58534e-05
2.76236e-05
2.48531e-05
2.40783e-05
2.40738e-05
2.44898e-05
2.54601e-05
2.79393e-05
3.48019e-05
3.97246e-05
5.3134e-05
5.7032e-05
4.66745e-05
4.80107e-05
5.34379e-05
5.94535e-05
6.42318e-05
6.52648e-05
6.01498e-05
5.63783e-05
5.59511e-05
5.93057e-05
6.42435e-05
6.3433e-05
5.88486e-05
5.28835e-05
4.73032e-05
4.58023e-05
5.58138e-05
5.22976e-05
6.60494e-05
8.0604e-05
0.000112929
0.000146113
0.000186622
0.000223926
0.000250709
0.000253613
0.000210688
0.000163076
0.000163512
0.000211193
0.000251382
0.000248919
0.000222458
0.000185614
0.000144074
0.00011068
7.91387e-05
6.52237e-05
8.0367e-05
0.000100439
0.000119127
0.000137421
0.000156739
0.000175748
0.000193376
0.000208313
0.000219325
0.000227247
0.000228514
0.000220705
0.00020925
0.000193957
0.000176027
0.00015676
0.000137154
0.000118672
9.98885e-05
7.97337e-05
1.88416e-06
2.75989e-06
3.43731e-06
3.97329e-06
4.40833e-06
4.77686e-06
5.13234e-06
5.59671e-06
6.31385e-06
7.55765e-06
7.57252e-06
6.48787e-06
5.79639e-06
5.30522e-06
4.90468e-06
4.49908e-06
4.04991e-06
3.52412e-06
2.86023e-06
1.89889e-06
3.09025e-06
6.14385e-06
7.6494e-06
8.70071e-06
9.50005e-06
1.01688e-05
1.10041e-05
1.26719e-05
1.53278e-05
1.75556e-05
1.75648e-05
1.55312e-05
1.30349e-05
1.1526e-05
1.07277e-05
1.00398e-05
9.19667e-06
8.08269e-06
6.48848e-06
3.14594e-06
4.90652e-06
8.4049e-06
1.01112e-05
1.12217e-05
1.20387e-05
1.25171e-05
1.30765e-05
1.42802e-05
1.63374e-05
2.15633e-05
2.16299e-05
1.59947e-05
1.40756e-05
1.30376e-05
1.2581e-05
1.20955e-05
1.12853e-05
1.01684e-05
8.51637e-06
5.02466e-06
6.09798e-06
1.12129e-05
1.37115e-05
1.46889e-05
1.49445e-05
1.48264e-05
1.47606e-05
1.54983e-05
1.84143e-05
3.31143e-05
3.3935e-05
1.81506e-05
1.52641e-05
1.45582e-05
1.46298e-05
1.47063e-05
1.43495e-05
1.33393e-05
1.10071e-05
6.36633e-06
1.21191e-05
1.36239e-05
1.5471e-05
1.7035e-05
1.79179e-05
1.79365e-05
1.74051e-05
1.73214e-05
2.12269e-05
5.01161e-05
5.23763e-05
2.14342e-05
1.71739e-05
1.71563e-05
1.7737e-05
1.78719e-05
1.71349e-05
1.55268e-05
1.33432e-05
1.11582e-05
2.55551e-05
2.01393e-05
1.79142e-05
1.74463e-05
1.74641e-05
1.75995e-05
1.77621e-05
1.84177e-05
2.3915e-05
6.55518e-05
6.92483e-05
2.46505e-05
1.86112e-05
1.79031e-05
1.7699e-05
1.74497e-05
1.72541e-05
1.74696e-05
1.93154e-05
2.4486e-05
3.96988e-05
3.14344e-05
2.49891e-05
2.33351e-05
2.3419e-05
2.40899e-05
2.5143e-05
2.74543e-05
3.6039e-05
8.21614e-05
8.47926e-05
3.67422e-05
2.76601e-05
2.52443e-05
2.41132e-05
2.33119e-05
2.29904e-05
2.42639e-05
3.01614e-05
3.87903e-05
5.28396e-05
5.48803e-05
4.36392e-05
4.60877e-05
5.32198e-05
6.05906e-05
6.52648e-05
6.4269e-05
6.17077e-05
9.26398e-05
9.36734e-05
6.14052e-05
6.35646e-05
6.46994e-05
6.02051e-05
5.28456e-05
4.55767e-05
4.29468e-05
5.36649e-05
5.2007e-05
6.64977e-05
8.00738e-05
0.000111912
0.00014774
0.000192346
0.000231371
0.000253613
0.000234266
0.000189282
0.000209636
0.000211324
0.000188976
0.00023195
0.000251089
0.000229759
0.000190737
0.000145645
0.000109656
7.86496e-05
6.56803e-05
8.21298e-05
0.000103559
0.000123626
0.000143717
0.000165424
0.000187212
0.000208313
0.000228334
0.000249287
0.000274438
0.000276418
0.000251177
0.000229725
0.000209191
0.000187702
0.000165549
0.000143498
0.000123194
0.000103021
8.15027e-05
1.88362e-06
2.71734e-06
3.40464e-06
3.99524e-06
4.52488e-06
5.02113e-06
5.56523e-06
6.31385e-06
7.08621e-06
8.34551e-06
8.44033e-06
7.27227e-06
6.42726e-06
5.59255e-06
4.97644e-06
4.43276e-06
3.88779e-06
3.30982e-06
2.65185e-06
1.80094e-06
3.0949e-06
5.84498e-06
7.49541e-06
8.85545e-06
1.00536e-05
1.11843e-05
1.27236e-05
1.53278e-05
1.67972e-05
4.31509e-05
4.42593e-05
1.70271e-05
1.57052e-05
1.31029e-05
1.15139e-05
1.03499e-05
9.09701e-06
7.6855e-06
5.97818e-06
3.08902e-06
4.8617e-06
7.97073e-06
9.60918e-06
1.09774e-05
1.22523e-05
1.31217e-05
1.4256e-05
1.63373e-05
2.38525e-05
0.000113936
0.000116492
2.365e-05
1.62205e-05
1.40956e-05
1.29945e-05
1.20949e-05
1.09075e-05
9.58616e-06
8.00756e-06
4.92712e-06
6.28201e-06
9.57187e-06
1.1698e-05
1.32109e-05
1.41725e-05
1.46472e-05
1.54752e-05
1.84143e-05
3.93677e-05
0.000205631
0.00020994
3.99826e-05
1.85564e-05
1.53695e-05
1.4467e-05
1.39176e-05
1.2969e-05
1.15137e-05
9.53347e-06
6.37678e-06
9.68342e-06
1.17291e-05
1.43887e-05
1.60966e-05
1.68317e-05
1.69573e-05
1.72672e-05
2.12268e-05
6.47258e-05
0.000315834
0.000321878
6.79698e-05
2.1899e-05
1.72667e-05
1.68024e-05
1.66648e-05
1.59793e-05
1.43728e-05
1.15032e-05
8.55886e-06
2.40059e-05
1.79744e-05
1.5856e-05
1.59859e-05
1.68728e-05
1.77772e-05
1.88346e-05
2.39149e-05
8.51299e-05
0.000404694
0.000413072
9.05805e-05
2.50018e-05
1.91643e-05
1.80172e-05
1.7013e-05
1.59409e-05
1.55513e-05
1.72913e-05
2.29637e-05
3.82172e-05
2.75159e-05
2.16894e-05
2.09082e-05
2.24403e-05
2.48146e-05
2.77904e-05
3.60389e-05
0.000105003
0.000447903
0.000456988
0.000111099
3.7292e-05
2.83645e-05
2.51925e-05
2.26061e-05
2.07963e-05
2.12399e-05
2.66379e-05
3.73284e-05
5.14041e-05
5.09123e-05
3.96413e-05
4.2225e-05
5.00964e-05
5.72622e-05
6.01498e-05
6.17077e-05
0.000113267
0.000418454
0.00042669
0.000117988
6.18602e-05
5.98463e-05
5.70581e-05
4.98793e-05
4.18668e-05
3.9058e-05
4.97412e-05
5.0598e-05
6.51437e-05
7.55877e-05
0.000103531
0.000137614
0.000180765
0.00021041
0.000210688
0.000189282
0.000221596
0.000373995
0.000378872
0.00022565
0.000189289
0.000208007
0.000208452
0.000178937
0.000135311
0.000101055
7.42701e-05
6.43651e-05
8.18297e-05
0.000103878
0.000124674
0.000145869
0.000169536
0.00019387
0.000219325
0.000249287
0.000289482
0.000338346
0.000341253
0.00029257
0.000251573
0.000220757
0.000194713
0.000169865
0.000145742
0.00012428
0.000103365
8.12168e-05
1.92003e-06
2.78322e-06
3.50125e-06
4.15701e-06
4.80367e-06
5.47791e-06
6.37841e-06
7.55766e-06
8.34551e-06
8.67466e-06
8.72099e-06
8.32979e-06
7.48377e-06
6.19643e-06
5.22701e-06
4.5305e-06
3.89163e-06
3.26771e-06
2.59792e-06
1.7759e-06
3.16996e-06
5.94529e-06
7.69818e-06
9.26735e-06
1.08774e-05
1.25398e-05
1.56074e-05
1.75556e-05
4.31509e-05
3.98134e-05
4.00707e-05
4.19884e-05
1.78866e-05
1.60258e-05
1.26915e-05
1.09778e-05
9.30701e-06
7.69621e-06
5.91316e-06
3.15216e-06
5.00749e-06
8.09916e-06
9.65329e-06
1.10581e-05
1.26975e-05
1.38621e-05
1.61281e-05
2.15633e-05
0.000113936
7.77099e-05
7.83129e-05
0.000110749
2.12472e-05
1.60209e-05
1.3608e-05
1.24002e-05
1.08883e-05
9.55575e-06
8.07766e-06
5.06897e-06
6.59028e-06
9.5632e-06
1.11752e-05
1.25261e-05
1.39611e-05
1.50694e-05
1.77521e-05
3.31142e-05
0.000205631
0.000127199
0.000128398
0.000203196
3.35492e-05
1.78884e-05
1.48527e-05
1.36961e-05
1.22899e-05
1.09838e-05
9.50684e-06
6.61686e-06
8.61687e-06
1.16384e-05
1.35843e-05
1.46054e-05
1.59076e-05
1.6896e-05
2.01449e-05
5.0116e-05
0.000315834
0.000189139
0.000190932
0.00031672
5.29834e-05
2.06442e-05
1.69038e-05
1.57607e-05
1.43724e-05
1.33221e-05
1.15164e-05
7.92344e-06
2.25838e-05
1.71965e-05
1.47677e-05
1.51083e-05
1.72595e-05
1.95656e-05
2.40133e-05
6.55516e-05
0.000404693
0.000259003
0.000261338
0.00041131
6.99936e-05
2.48018e-05
1.99378e-05
1.75628e-05
1.52403e-05
1.46425e-05
1.66751e-05
2.16348e-05
3.63516e-05
2.53892e-05
1.95795e-05
1.92842e-05
2.24764e-05
2.75469e-05
3.55552e-05
8.21611e-05
0.000447902
0.000325879
0.000328464
0.000458983
8.69205e-05
3.69533e-05
2.84582e-05
2.31321e-05
1.95368e-05
1.94486e-05
2.49062e-05
3.55856e-05
4.89139e-05
4.58243e-05
3.45226e-05
3.63245e-05
4.41991e-05
5.10581e-05
5.63782e-05
9.26397e-05
0.000418454
0.000368297
0.000370868
0.000432431
9.63575e-05
5.6783e-05
5.1301e-05
4.44042e-05
3.64533e-05
3.44021e-05
4.50229e-05
4.82771e-05
6.1835e-05
6.6869e-05
8.63138e-05
0.000116016
0.000152493
0.000166096
0.000163076
0.000209636
0.000373995
0.000385383
0.000388294
0.0003831
0.000213721
0.000164374
0.000165786
0.000151081
0.000115056
8.48925e-05
6.62359e-05
6.12452e-05
7.85885e-05
0.000100508
0.00012104
0.000142645
0.000167918
0.000194856
0.000227247
0.000274438
0.000338346
0.000361676
0.000363921
0.000342998
0.00027803
0.000229706
0.000196342
0.000168591
0.00014275
0.000120678
0.000100044
7.80461e-05
1.93116e-06
2.80395e-06
3.51237e-06
4.15478e-06
4.78717e-06
5.45659e-06
6.36367e-06
7.57255e-06
8.44036e-06
8.72101e-06
8.56167e-06
8.23519e-06
7.43802e-06
6.1658e-06
5.20714e-06
4.52966e-06
3.90579e-06
3.29339e-06
2.62681e-06
1.79401e-06
3.14452e-06
5.9541e-06
7.64823e-06
9.17025e-06
1.07407e-05
1.23993e-05
1.55325e-05
1.75648e-05
4.42595e-05
4.00708e-05
4.04349e-05
4.39141e-05
1.8322e-05
1.62855e-05
1.26912e-05
1.09007e-05
9.20757e-06
7.60884e-06
5.8624e-06
3.13766e-06
4.90957e-06
7.92593e-06
9.41032e-06
1.08007e-05
1.24622e-05
1.36018e-05
1.59546e-05
2.163e-05
0.000116493
7.8313e-05
7.89887e-05
0.000115283
2.1407e-05
1.59317e-05
1.33791e-05
1.21692e-05
1.06142e-05
9.29836e-06
7.879e-06
4.97628e-06
6.44395e-06
9.37274e-06
1.08342e-05
1.21235e-05
1.36217e-05
1.47586e-05
1.7573e-05
3.39353e-05
0.00020994
0.000128398
0.000128926
0.000209687
3.43003e-05
1.76847e-05
1.45494e-05
1.33547e-05
1.19111e-05
1.06503e-05
9.28103e-06
6.44574e-06
8.38823e-06
1.14587e-05
1.3021e-05
1.39771e-05
1.54797e-05
1.66342e-05
2.01815e-05
5.23768e-05
0.000321879
0.000190932
0.000190608
0.000323898
5.49276e-05
2.0575e-05
1.66458e-05
1.53988e-05
1.38799e-05
1.279e-05
1.12018e-05
7.68703e-06
2.20537e-05
1.66761e-05
1.42515e-05
1.47911e-05
1.72388e-05
1.96993e-05
2.44468e-05
6.9249e-05
0.000413073
0.000261339
0.00025978
0.00041914
7.18401e-05
2.4939e-05
1.99577e-05
1.75209e-05
1.50452e-05
1.4236e-05
1.61616e-05
2.10767e-05
3.61213e-05
2.48863e-05
1.90495e-05
1.87913e-05
2.21235e-05
2.7473e-05
3.58536e-05
8.47932e-05
0.00045699
0.000328464
0.000325562
0.000465622
8.73222e-05
3.67784e-05
2.82097e-05
2.28203e-05
1.91777e-05
1.90703e-05
2.44926e-05
3.54011e-05
4.88556e-05
4.54335e-05
3.41923e-05
3.59873e-05
4.37531e-05
5.05786e-05
5.59511e-05
9.36739e-05
0.000426692
0.000370869
0.00036706
0.000436816
9.60319e-05
5.65973e-05
5.11831e-05
4.43051e-05
3.64402e-05
3.43062e-05
4.47848e-05
4.83284e-05
6.19164e-05
6.70267e-05
8.69097e-05
0.000117437
0.000153576
0.000166937
0.000163513
0.000211325
0.000378873
0.000388295
0.000384596
0.000385231
0.000214311
0.000165258
0.000167913
0.000152978
0.000116581
8.57167e-05
6.67243e-05
6.14526e-05
7.88268e-05
0.000100893
0.000121552
0.00014332
0.000168696
0.000195809
0.000228515
0.000276418
0.000341254
0.000363922
0.000360978
0.000342626
0.000277814
0.000229597
0.000196509
0.000168879
0.000143051
0.000120904
0.000100293
7.83143e-05
1.95469e-06
2.85772e-06
3.54003e-06
4.11971e-06
4.64747e-06
5.15665e-06
5.72233e-06
6.4879e-06
7.27229e-06
8.3298e-06
8.2352e-06
7.08939e-06
6.24254e-06
5.43492e-06
4.87039e-06
4.37802e-06
3.88032e-06
3.34324e-06
2.70696e-06
1.83596e-06
3.09435e-06
6.00911e-06
7.56495e-06
8.83333e-06
9.98541e-06
1.11442e-05
1.27721e-05
1.55313e-05
1.70272e-05
4.19884e-05
4.39141e-05
1.74853e-05
1.62147e-05
1.30265e-05
1.12282e-05
9.99707e-06
8.78817e-06
7.47781e-06
5.88951e-06
3.08532e-06
4.75757e-06
7.66236e-06
9.18421e-06
1.05285e-05
1.17402e-05
1.26291e-05
1.38381e-05
1.59948e-05
2.36502e-05
0.00011075
0.000115283
2.36906e-05
1.59439e-05
1.36035e-05
1.2374e-05
1.14573e-05
1.02783e-05
9.0811e-06
7.65357e-06
4.82938e-06
6.12023e-06
8.99379e-06
1.0936e-05
1.2352e-05
1.33879e-05
1.39393e-05
1.49119e-05
1.81507e-05
3.99828e-05
0.000203196
0.000209687
4.10406e-05
1.8221e-05
1.47923e-05
1.37617e-05
1.31487e-05
1.21828e-05
1.08724e-05
9.06781e-06
6.13285e-06
8.6e-06
1.10072e-05
1.36883e-05
1.52172e-05
1.59246e-05
1.61951e-05
1.67559e-05
2.14344e-05
6.79704e-05
0.000316721
0.000323898
7.00356e-05
2.18739e-05
1.68177e-05
1.6229e-05
1.59964e-05
1.52838e-05
1.37464e-05
1.10152e-05
7.65776e-06
2.30955e-05
1.68443e-05
1.4915e-05
1.53723e-05
1.65373e-05
1.76267e-05
1.88171e-05
2.46507e-05
9.05813e-05
0.000411311
0.00041914
9.40623e-05
2.55147e-05
1.92005e-05
1.79459e-05
1.68172e-05
1.55723e-05
1.49321e-05
1.6362e-05
2.20024e-05
3.79426e-05
2.64518e-05
2.05157e-05
1.97928e-05
2.15204e-05
2.4227e-05
2.76236e-05
3.67423e-05
0.0001111
0.000458984
0.000465622
0.000114143
3.70681e-05
2.77241e-05
2.43518e-05
2.16743e-05
1.9873e-05
2.03713e-05
2.58918e-05
3.72146e-05
5.14663e-05
5.07342e-05
3.87041e-05
4.09826e-05
4.87918e-05
5.60943e-05
5.93057e-05
6.14053e-05
0.000117988
0.000432431
0.000436816
0.00012071
6.17876e-05
5.93771e-05
5.59497e-05
4.86398e-05
4.09137e-05
3.85675e-05
4.99662e-05
5.09658e-05
6.54178e-05
7.62322e-05
0.000103951
0.000137807
0.000180648
0.000210081
0.000211193
0.000188976
0.000225651
0.000383101
0.000385231
0.000227556
0.000191026
0.000212759
0.000209262
0.000178452
0.000135514
0.000101727
7.57699e-05
6.49725e-05
8.21998e-05
0.000104396
0.000125286
0.000146558
0.000170345
0.000194886
0.000220705
0.000251177
0.00029257
0.000342999
0.000342626
0.00029301
0.000251822
0.000221246
0.000195027
0.000170047
0.000145925
0.000124557
0.000103759
8.1679e-05
2.01902e-06
3.01759e-06
3.6918e-06
4.21609e-06
4.65099e-06
5.02323e-06
5.37038e-06
5.79641e-06
6.42727e-06
7.48378e-06
7.43804e-06
6.24255e-06
5.51982e-06
5.07833e-06
4.73459e-06
4.38189e-06
3.98548e-06
3.51048e-06
2.88458e-06
1.91994e-06
3.10981e-06
6.45338e-06
7.88856e-06
8.89767e-06
9.7124e-06
1.0444e-05
1.13396e-05
1.3035e-05
1.57053e-05
1.78866e-05
1.8322e-05
1.62148e-05
1.31692e-05
1.12837e-05
1.03411e-05
9.59832e-06
8.78739e-06
7.78315e-06
6.34124e-06
3.10934e-06
4.7861e-06
7.96409e-06
9.63048e-06
1.08522e-05
1.16538e-05
1.22162e-05
1.28374e-05
1.40757e-05
1.62205e-05
2.12473e-05
2.1407e-05