/*--------------------------------*- C++ -*----------------------------------*\
| =========                 |                                                 |
| \\      /  F ield         | OpenFOAM: The Open Source CFD Toolbox           |
|  \\    /   O peration     | Version:  1.7.1                                 |
|   \\  /    A nd           | Web:      www.OpenFOAM.com                      |
|    \\/     M anipulation  |                                                 |
\*---------------------------------------------------------------------------*/
FoamFile
{
    version     2.0;
    format      ascii;
    class       surfaceScalarField;
    location    "2000";
    object      phi;
}
// * * * * * * * * * * * * * * * * * * * * * * * * * * * * * * * * * * * * * //

dimensions      [1 0 -1 0 0 0 0];

internalField   nonuniform List<scalar> 
11200
(
2.63518e-05
-5.27116e-05
2.63443e-05
0.000173753
-0.000359796
0.000212401
0.000214408
-0.000254488
0.000213834
0.000158879
-0.000154127
0.000209652
9.94378e-05
-0.000163574
0.000223013
3.46995e-05
-0.000184588
0.000249326
-4.49262e-05
-0.000194992
0.000274622
-0.000146532
-0.0001728
0.000274408
-0.000267264
-0.000136311
0.000257039
-0.000403314
-0.000109089
0.000245131
-0.000526108
-0.000135396
0.000258186
-0.000616887
-0.000191045
0.000281829
-0.000662595
-0.000257135
0.000302856
-0.000671768
-0.000298685
0.000307875
-0.000662372
-0.000297942
0.000288563
-0.000612633
-0.000309246
0.000259527
-0.000542028
-0.000316492
0.000245906
-0.000427545
-0.000345201
0.000230727
-0.000218582
-0.000421157
0.000212204
-0.00028535
6.67719e-05
1.76247e-05
-8.79294e-05
1.76103e-05
-0.000600369
0.000302086
-4.38789e-05
-0.00110704
0.000386303
-0.000134113
-0.00103895
-0.000119901
-0.000102324
-0.000695824
-0.000364488
-0.000142205
-0.000554697
-0.000247488
-7.82225e-05
-0.000498835
-0.000220881
-2.99701e-05
-0.000380954
-0.000276979
-1.36964e-05
-0.000215933
-0.0002947
-6.62807e-06
-4.46974e-06
-0.000295019
-2.55279e-05
0.000184092
-0.000301174
-2.27781e-05
0.000303644
-0.000309948
-6.42394e-07
0.000357342
-0.000314402
3.57878e-06
0.000382408
-0.000321873
-1.86601e-06
0.00048243
-0.000350875
-4.70769e-05
0.0007542
-0.000499122
-8.18792e-05
0.000926091
-0.000471387
-1.69835e-05
0.000529525
0.000132201
-8.08288e-05
3.55366e-05
0.000164769
-9.19265e-05
-0.000152614
-9.71665e-05
0.00159781
-0.00328354
0.00159781
0.00180144
-0.00119216
0.00129062
0.000920213
0.000260121
0.00100743
-0.000355556
0.000511208
0.000644686
-0.00124302
0.000457179
6.57977e-05
-0.0015477
0.000168047
-0.000110853
-0.00126057
-0.000394572
-0.000113437
-0.000799686
-0.00052092
-0.000216941
-0.000381952
-0.000445539
-0.000266889
9.81947e-05
-0.000438656
-0.000336504
0.000571147
-0.000454049
-0.000320071
0.000969829
-0.000466417
-0.000242206
0.00136874
-0.000526294
-0.000187014
0.00175285
-0.000621961
-8.40164e-05
0.00149907
-1.2968e-05
-8.41239e-05
0.000665232
0.000299252
3.54778e-05
-0.000632086
0.000222022
0.000603934
-0.00156162
3.41239e-05
0.00102765
-0.00141428
-0.00122895
0.00124643
-0.00304538
0.00147852
0.00150185
-0.00628724
0.00150186
0.00267541
-0.00401243
0.00164671
0.00330161
-0.00198265
0.00161657
0.00296778
-0.000537499
0.00138252
0.00198618
0.000341421
0.00109736
0.000704629
0.000606843
0.000842763
-0.000298124
0.000212158
0.000396029
-0.000633105
2.26118e-05
-0.000208552
-0.000465615
-9.49705e-05
-0.000518058
5.97566e-05
-0.000207199
-0.000756825
0.000650097
-0.000320533
-0.000723852
0.000951164
-0.000339374
-0.000428105
0.000744336
-0.000128951
-0.000190512
-0.000216014
-1.86662e-06
0.000340259
-0.0015931
0.000487091
0.000877043
-0.0026744
0.000281072
0.00109949
-0.00316273
-0.000698457
0.00140882
-0.00262538
-0.00219742
0.00169419
-0.00150263
-0.00408788
0.00173619
-0.00612445
0.00157645
0.000857963
-0.00800317
0.000857964
0.00141036
-0.00581479
0.00124997
0.00176364
-0.00380588
0.00146995
0.00190352
-0.00223808
0.00156071
0.00193147
-0.00120892
0.00152238
0.00181316
-0.000673937
0.00139909
0.00121727
-0.000399852
0.00120789
0.000507162
-0.00019153
0.000924247
0.00011026
-0.000179438
0.000481367
0.000164602
-0.000256413
-5.12776e-06
0.000268721
-0.00032847
-9.61791e-05
-0.000140851
-0.000320757
0.00039096
-0.000936859
-0.000219349
0.00088641
-0.00171056
-0.00042907
0.0012009
-0.00189031
-0.00075802
0.00142486
-0.00185586
-0.00129205
0.00153867
-0.00173072
-0.00238498
0.00156139
-0.00143493
-0.00397139
0.00147818
-0.000895498
-0.00589508
0.00126777
-0.00787691
0.000856963
0.000356277
-0.00871571
0.000356274
0.000240213
-0.0066849
0.000986174
-2.96058e-05
-0.00490054
0.00136448
-0.000190063
-0.00366187
0.00158424
-0.00028015
-0.00284613
0.00172731
-0.000330244
-0.00235657
0.00173272
-0.000330451
-0.00203582
0.00163617
-0.000214059
-0.00179963
0.0014917
-7.98945e-05
-0.00166534
0.00135174
2.66079e-06
-0.00160642
0.00126745
4.44758e-05
-0.00160701
0.00123672
8.51798e-05
-0.00166647
0.00130501
0.000200917
-0.00180657
0.00147148
0.000215695
-0.00206504
0.00162119
0.000159721
-0.00242438
0.00172233
8.56525e-05
-0.00293366
0.00171567
-7.16292e-05
-0.00378499
0.00155729
-0.000342422
-0.00503036
0.00132976
-0.000437744
-0.00674695
0.000947199
-0.00860732
0.000292667
-9.09238e-05
-0.00853385
-9.09277e-05
-0.000663305
-0.00686612
0.000753604
-0.00121017
-0.00548396
0.00113029
-0.00152915
-0.00465297
0.00131008
-0.00160217
-0.00415936
0.00138625
-0.0014775
-0.00388505
0.00140382
-0.00118995
-0.00370894
0.00138557
-0.000788926
-0.00356143
0.00136078
-0.000399427
-0.00343472
0.00137988
-0.000116423
-0.00333156
0.00144213
0.000174162
-0.00334034
0.00144275
0.000577381
-0.00344356
0.00137388
0.000998552
-0.00358715
0.00135941
0.00130683
-0.00375559
0.00138227
0.00144201
-0.00395369
0.00139415
0.00138427
-0.0042427
0.00136678
0.00107005
-0.0047475
0.00127673
0.000527182
-0.00557233
0.00108483
4.47097e-06
-0.00691294
0.000688699
-0.00843812
-0.000164727
-0.000531162
-0.00747152
-0.000531167
-0.00148446
-0.00623201
0.000319201
-0.0022136
-0.00537021
0.000615389
-0.00258485
-0.00495565
0.000673937
-0.00259911
-0.00475235
0.000607241
-0.00231821
-0.00467216
0.00050621
-0.00180968
-0.00462756
0.000410092
-0.00116775
-0.00456476
0.000361395
-0.000546652
-0.00446815
0.000412322
-0.000120798
-0.00436008
0.000602663
0.000309093
-0.00437551
0.000605272
0.000952245
-0.0044956
0.000408883
0.00161469
-0.0046075
0.000357909
0.00213885
-0.0046817
0.000401939
0.00243116
-0.00473455
0.000488552
0.0024258
-0.00481938
0.00058203
0.0020601
-0.00502112
0.000639322
0.00134339
-0.00542216
0.000566532
0.000435138
-0.00624653
0.000241844
-0.00739578
-0.000607204
-0.0012251
-0.00502132
-0.0012251
-0.00252158
-0.00429757
-0.000637961
-0.0033585
-0.00397853
-0.00055475
-0.00371867
-0.0039635
-0.000631979
-0.00364547
-0.00404653
-0.000779028
-0.00321362
-0.00417016
-0.00093385
-0.00250044
-0.00428962
-0.00105113
-0.00160776
-0.00436493
-0.00109251
-0.000724264
-0.00436119
-0.000990455
-0.000116926
-0.00429422
-0.000673195
0.000498327
-0.00430524
-0.000685527
0.00140893
-0.00438544
-0.00102077
0.00232055
-0.00439961
-0.00111952
0.00304635
-0.00432913
-0.00107836
0.00348723
-0.00421169
-0.000963746
0.00356697
-0.00408782
-0.000811293
0.00321323
-0.00400116
-0.000666224
0.00239064
-0.00400598
-0.000593589
0.00113395
-0.00430326
-0.000686579
-0.00497352
-0.00128831
-0.00251066
-0.00251066
-0.00413027
-0.00267796
-0.00495547
-0.00315334
-0.00525169
-0.00366728
-0.0050984
-0.00419982
-0.00455227
-0.0047163
-0.00365492
-0.00518698
-0.00246469
-0.00555517
-0.00113142
-0.00569446
-0.000106067
-0.00531959
0.000940144
-0.00535145
0.00229913
-0.00574443
0.00350369
-0.00560418
0.00441027
-0.00523573
0.00496386
-0.00476529
0.00512399
-0.00424796
0.00483432
-0.00371149
0.00401898
-0.00319064
0.00242493
-0.00270921
-0.0025486
0.000212409
-0.000359797
0.000173739
0.000354621
-0.000284419
0.000354611
0.000373004
-0.000177714
0.00037316
0.000311976
-9.94255e-05
0.000370097
0.000235218
-9.21029e-05
0.000391866
0.000152169
-0.000112883
0.000445254
4.81055e-05
-0.000114507
0.00049319
-7.40113e-05
-0.000119159
0.000515682
-0.000222387
-0.000105823
0.000511234
-0.000386887
-0.000101627
0.000511253
-0.000544679
-0.000119471
0.000535447
-0.000669857
-0.000156838
0.000563848
-0.000750031
-0.000195393
0.000578431
-0.000797166
-0.000211823
0.000566844
-0.000813924
-0.000221126
0.000526461
-0.000775983
-0.000258847
0.000480449
-0.000672472
-0.000295622
0.000438033
-0.000538913
-0.000280595
0.000377771
-0.000331592
-0.000312532
0.00031742
-0.000433242
0.000168435
-4.38745e-05
0.000302083
-0.000600386
-0.000386802
0.000401446
-0.000386812
-0.000674374
0.000256411
-0.000280667
-0.000590517
-0.00017481
-0.0001108
-0.000332782
-0.000427485
-6.45547e-05
-0.000233906
-0.000311688
2.17105e-05
-0.000222287
-0.000241756
8.56614e-05
-0.000176536
-0.000284637
0.000106035
-0.000112166
-0.000288499
0.000111683
-3.37719e-05
-0.000296582
9.1039e-05
3.47674e-05
-0.000317352
0.000106571
7.20304e-05
-0.000337705
0.00014297
7.38331e-05
-0.000352313
0.000158705
7.35726e-05
-0.000366887
0.000153469
0.00010613
-0.000384574
8.38236e-05
0.000262491
-0.000563635
6.65608e-05
0.000446211
-0.000569237
7.29256e-05
0.000330173
-9.24613e-05
-0.00015292
0.000107629
0.000174768
-0.000356676
0.000188485
-0.000611254
0.00129062
-0.00119215
0.00180144
0.00157117
-0.000159662
0.00157117
0.00112167
0.000482373
0.00123099
0.000253345
0.00054435
0.000793873
-0.000565987
0.000331486
0.000126162
-0.000913957
4.70018e-05
-0.000121574
-0.000743264
-0.000401427
-0.000124459
-0.000438389
-0.00055888
-0.000247569
-0.00020015
-0.000444279
-0.000349344
5.9121e-05
-0.000463031
-0.000429321
0.000333917
-0.000509818
-0.000402394
0.000573807
-0.000525972
-0.000293823
0.000794824
-0.000579308
-0.000181028
0.00101908
-0.000655186
-1.99617e-05
0.000774865
-0.000181862
-4.26192e-05
2.21566e-05
0.000147487
7.7073e-05
-0.000919528
0.000246531
0.000729875
-0.00137289
0.000193627
0.00119498
-0.00112824
-0.000271087
0.00144767
-0.00102242
0.00156122
0.0016467
-0.00401242
0.00267543
0.00285742
-0.00258111
0.00285743
0.00342781
-0.00114253
0.00267108
0.003169
-4.24166e-05
0.00222808
0.0022866
0.000659766
0.00165147
0.00126541
0.000754216
0.00115675
0.000363553
0.000311062
0.000585406
-0.000167989
-9.61191e-05
-0.00013977
-0.00019544
-0.000347783
-0.000587103
6.68787e-05
-0.000634406
-0.000847767
0.000391176
-0.000742129
-0.000815836
0.000503885
-0.000568808
-0.000497975
0.000114009
-0.000256158
-0.000123782
-0.000817505
7.24446e-05
0.000544152
-0.00185841
0.000599743
0.00113636
-0.00282616
0.000613987
0.00160076
-0.00322208
-0.00013465
0.00218592
-0.00275282
-0.00127407
0.00269263
-0.00161376
-0.0025793
0.00290535
-0.00380247
0.00274275
0.00124997
-0.00581478
0.00141037
0.00214059
-0.00436236
0.0021406
0.00269861
-0.00270464
0.00247404
0.00292116
-0.00117405
0.00246979
0.00289332
-5.48592e-05
0.00226484
0.00260166
0.000454126
0.00199084
0.00193316
0.000541324
0.00164613
0.00113249
0.000495212
0.00113359
0.000545894
0.000283305
0.000436871
0.000209031
2.33238e-05
-0.000325995
-0.000101776
-6.47764e-05
-0.000462722
-0.000749323
0.000146906
0.000322795
-0.00159875
0.000423349
0.00105634
-0.00243785
0.000497509
0.00161494
-0.00279571
0.000365167
0.0020173
-0.00281257
-0.000124681
0.0022942
-0.0026045
-0.00126566
0.00248432
-0.00209928
-0.00278132
0.00248022
-0.00124293
-0.00432073
0.00215284
-0.00561335
0.00142492
0.000986174
-0.00668489
0.00024021
0.00142271
-0.00523542
0.00142271
0.00151079
-0.00352244
0.00209421
0.00145558
-0.00194479
0.00241018
0.00138272
-0.000771255
0.00251656
0.00121651
-7.90355e-05
0.00243209
0.00088746
0.000328142
0.0021784
0.000558143
0.000485741
0.00183049
0.0002771
0.000470331
0.00144575
8.93032e-05
0.000430411
0.00104816
-0.00011972
0.000438474
0.000942496
-0.000488721
0.000473951
0.00134696
-0.000867347
0.000494132
0.00177933
-0.00121796
0.000317542
0.00215177
-0.0014301
-0.000126959
0.0024266
-0.0015093
-0.000843285
0.00251348
-0.00156181
-0.00204273
0.00238687
-0.00147026
-0.00359565
0.00205255
-0.00102057
-0.00518526
0.00136205
-0.00651388
0.000172624
0.000753607
-0.00686611
-0.00066331
0.000814162
-0.00535652
0.000814157
0.000548756
-0.00378892
0.00166218
0.000297404
-0.00248421
0.00210086
0.000113839
-0.00154211
0.00234066
1.52291e-05
-0.000928661
0.00235205
-1.05772e-05
-0.000490695
0.00223022
-3.00412e-05
-0.000210978
0.00207696
-7.10609e-05
-5.90819e-05
0.00195031
-7.43563e-05
2.37592e-05
0.00185208
-6.98367e-05
3.12921e-05
0.00184541
-0.000122629
-3.81883e-05
0.00193881
-0.000142535
-0.000198478
0.00207192
-0.000169701
-0.00049387
0.00222085
-0.000275773
-0.000953975
0.00232723
-0.00044451
-0.00160069
0.00229292
-0.00068879
-0.00255719
0.00203547
-0.000920164
-0.00385412
0.00157469
-0.000812687
-0.00531429
0.000710251
-0.00672774
-0.000763558
0.000319205
-0.00623201
-0.00148447
4.60721e-05
-0.00481025
4.60665e-05
-0.000510075
-0.00350489
0.000887502
-0.000855768
-0.00269212
0.00122753
-0.000973865
-0.00212925
0.00131248
-0.000951713
-0.00175374
0.00130914
-0.000804112
-0.00147325
0.00124504
-0.000583921
-0.00125837
0.0011886
-0.000350712
-0.00109813
0.00121816
-0.000142235
-0.000944519
0.00136246
6.95889e-05
-0.000942922
0.00136766
0.000310451
-0.00109894
0.00122877
0.000548922
-0.00126813
0.00118909
0.000721034
-0.00149582
0.00123178
0.00077206
-0.00178921
0.00127276
0.000671077
-0.00217391
0.00125623
0.000344618
-0.00273889
0.00114747
-0.000168859
-0.00355404
0.000779924
-0.000391523
-0.00477776
-7.20174e-05
-0.00614675
-0.00157972
-0.000637957
-0.00429757
-0.00252158
-0.0014298
-0.00322656
-0.00142981
-0.00207491
-0.00256058
-0.000853955
-0.00242227
-0.00226486
-0.000711872
-0.00242256
-0.00209491
-0.00081308
-0.00213496
-0.0019991
-0.000976094
-0.0016526
-0.00193513
-0.00107163
-0.00106405
-0.00187408
-0.00106535
-0.000508791
-0.00178899
-0.000854855
-0.000132786
-0.00160806
-0.000385658
0.000249038
-0.0016061
-0.000404173
0.000814048
-0.001795
-0.000889725
0.00142137
-0.00188715
-0.00110782
0.00192565
-0.00195285
-0.00112562
0.00223285
-0.00201974
-0.00104042
0.00224993
-0.00211787
-0.00088442
0.00192462
-0.00228781
-0.00079199
0.00130467
-0.00257812
-0.000949567
0.000581199
-0.0032196
-0.00152127
-0.0042547
-0.00259917
-0.00267795
-0.00413028
-0.00429123
-0.00429124
-0.00512563
-0.00487953
-0.00544854
-0.00560925
-0.00534471
-0.00639857
-0.0048717
-0.00718841
-0.00406346
-0.00793035
-0.00295827
-0.00853444
-0.00162089
-0.00882084
-9.33588e-05
-0.00845519
0.00144265
-0.00849357
0.00279258
-0.00888937
0.00391056
-0.00860931
0.00473098
-0.008009
0.00521575
-0.00726981
0.0053314
-0.00648148
0.00502109
-0.00568899
0.00420308
-0.00495076
0.00262315
-0.00434889
-0.00418015
0.00021384
-0.000254497
0.000214396
0.00037317
-0.000177716
0.000372994
0.00043151
-0.000116688
0.000431501
0.00042859
-0.000102774
0.000475784
0.000382367
-9.5656e-05
0.00053374
0.000294982
-8.05917e-05
0.000613223
0.000174386
-8.27596e-05
0.00069654
3.00684e-05
-0.000105984
0.000765981
-0.000155209
-0.000106954
0.000803463
-0.000367291
-0.000108089
0.000831422
-0.000571451
-0.000121832
0.000861437
-0.000735746
-0.000146473
0.00087462
-0.000848977
-0.000165636
0.000857304
-0.000922783
-0.000169394
0.00081005
-0.000951841
-0.000184093
0.000739621
-0.000910627
-0.000231176
0.000670426
-0.00076795
-0.000306483
0.000601856
-0.000584832
-0.000296996
0.000491662
-0.000343953
-0.000295265
0.000371817
-0.000392561
0.000217059
-0.000134106
0.000386279
-0.00110705
-0.000280657
0.000256401
-0.000674379
-0.000356318
3.46192e-05
-0.000356323
-0.000178246
-0.000373965
-1.76804e-05
1.63165e-05
-0.000468811
0.000114043
5.72574e-05
-0.000295645
0.000195825
4.33817e-05
-0.00025279
0.000269569
2.04668e-05
-0.000281356
0.000304325
-1.18855e-05
-0.000284354
0.00032144
-4.36745e-05
-0.000301359
0.000316104
-7.73235e-05
-0.000320692
0.000339087
-0.000126862
-0.000332277
0.000378321
-0.000178332
-0.000341119
0.000385667
-0.00018387
-0.000378721
0.000368343
-0.000193892
-0.000387847
0.000297608
-0.000109619
-0.000516558
0.00026768
9.57117e-05
-0.000682714
0.000243841
0.000166946
-0.000446801
-7.43348e-05
0.00011454
-0.000119923
-0.000479607
7.11599e-05
-0.000960429
0.00100743
0.000260108
0.000920195
0.00123099
0.000482365
0.00112167
0.000942982
0.000610652
0.000942985
0.000343965
0.000448884
0.000570057
-0.00027891
0.000223925
5.63028e-05
-0.000539979
-5.48648e-05
-0.000101288
-0.000366693
-0.0004753
-7.5234e-05
-0.000175284
-0.00055824
-0.00016209
-5.9276e-05
-0.000491807
-0.000257895
4.92679e-05
-0.000517934
-0.000321284
0.000165803
-0.000550006
-0.000289608
0.000283227
-0.000571626
-0.00017189
0.000411386
-0.000600916
-4.93834e-05
0.000617503
-0.000683373
7.85812e-05
0.000484375
-0.000315108
1.7776e-05
-6.7874e-05
4.48098e-05
6.79576e-05
-0.000716356
0.00019432
0.000501339
-0.00106734
0.000277975
0.000821222
-0.000911896
0.000243359
0.000929002
0.00017265
0.000547888
0.00161656
-0.00198266
0.00330162
0.00267107
-0.00114253
0.00342782
0.00313776
-0.000322748
0.00313777
0.00287271
0.000411681
0.00253032
0.00211469
0.000809608
0.0018238
0.00127066
0.000728942
0.00121699
0.000564586
0.000198893
0.000617291
0.000108812
-0.000246546
4.31071e-06
1.59674e-05
-0.000587939
-0.000398126
8.60997e-05
-0.000759373
-0.000676457
0.000188268
-0.00080468
-0.000663327
0.000199798
-0.000754345
-0.000326781
-0.000144199
-0.000427356
4.666e-05
-0.000841614
-3.81054e-05
0.000596305
-0.00168179
0.000518784
0.00114266
-0.00247754
0.000748388
0.00169294
-0.00284433
0.00037089
0.00237615
-0.00250574
-0.000375216
0.00300722
-0.00154792
-0.00113153
0.00332242
-0.00183958
0.00320705
0.00146995
-0.00380588
0.00176364
0.00247403
-0.00270464
0.00269861
0.00310614
-0.00158695
0.00310615
0.00335609
-0.000420082
0.0030516
0.00326469
0.000428547
0.00273729
0.0028983
0.000725308
0.00236087
0.00219541
0.000656099
0.00189181
0.00141939
0.000414647
0.00124841
0.000726113
5.69495e-05
0.000485264
0.000211331
-0.000287152
-0.000283433
-0.000281352
-0.000370999
-0.000403719
-0.000993389
-9.50062e-05
0.000375496
-0.00182637
0.000315385
0.00114658
-0.00264891
0.000592977
0.0018064
-0.00310999
0.000638042
0.00235912
-0.00320183
0.000368468
0.00276596
-0.00296073
-0.000443533
0.00305764
-0.00237858
-0.00156906
0.00309192
-0.00143777
-0.00260437
0.00268487
-0.00361726
0.00176483
0.00136448
-0.00490053
-2.96089e-05
0.0020942
-0.00352244
0.00151078
0.00245112
-0.00230078
0.00245112
0.00256873
-0.00101333
0.00288582
0.00253242
-1.13233e-05
0.00299275
0.00222628
0.000639531
0.00282401
0.00173103
0.000834386
0.00249536
0.00115756
0.000766196
0.0020524
0.000591545
0.00058159
0.00148713
0.000147299
0.000430935
0.000774319
-0.000299695
0.000402087
0.000616404
-0.000955768
0.000562726
0.0013453
-0.00160716
0.000763818
0.00198229
-0.00214697
0.000829247
0.0024553
-0.00249402
0.0006027
0.00280898
-0.00256109
-4.06662e-05
0.00298968
-0.0024518
-0.00103404
0.00286808
-0.00210382
-0.00226915
0.00240466
-0.00138311
-0.00340377
0.00144074
-0.00474381
-8.39378e-05
0.00113029
-0.00548395
-0.00121018
0.00166218
-0.00378892
0.000548749
0.00177851
-0.00253343
0.00177851
0.00169504
-0.0013138
0.00248479
0.00149121
-0.000261755
0.00279493
0.00124543
0.00043583
0.00280153
0.000944097
0.000731218
0.00263472
0.000615249
0.000773009
0.00239899
0.000283792
0.000702388
0.00216097
-1.41673e-05
0.000656369
0.0019246
-0.000330258
0.0006619
0.00190169
-0.000689121
0.00072594
0.00213445
-0.00103485
0.000804966
0.0023765
-0.00134693
0.000753877
0.00260829
-0.00160925
0.000426532
0.00276572
-0.0018071
-0.000290739
0.00274085
-0.00187993
-0.00132902
0.00240329
-0.00173871
-0.00250127
0.00166558
-0.0011689
-0.00368531
0.000421983
-0.00537179
-0.00130448
0.000615391
-0.0053702
-0.00221361
0.000887508
-0.00350488
-0.000510082
0.00074947
-0.00225735
0.000749462
0.000525532
-0.00129792
0.0014356
0.000372512
-0.000580618
0.00178436
0.000307371
-0.000124577
0.00193468
0.000223233
0.000170576
0.00188982
0.000127138
0.000280807
0.00177689
4.99629e-05
0.000254113
0.0017436
-0.000127564
0.000406805
0.00178955
-0.000304195
0.000418783
0.00178741
-0.000374228
0.000287218
0.00173752
-0.000465735
0.000326202
0.00175936
-0.000531272
0.000200202
0.00185099
-0.00057626
-0.0001239
0.00186818
-0.000712772
-0.000586245
0.00168825
-0.000905872
-0.00129777
0.00130932
-0.000987268
-0.00224029
0.000600337
-0.000657216
-0.00345086
-0.000636526
-0.0053056
-0.00230312
-0.000554749
-0.00397853
-0.00335851
-0.000853949
-0.00256058
-0.00207492
-0.00113283
-0.0016996
-0.00113284
-0.00125286
-0.00123397
-0.000655795
-0.00119986
-0.00091124
-0.000535462
-0.000972521
-0.000668725
-0.000659289
-0.000632891
-0.000467854
-0.000772829
-0.000326036
-0.000307013
-0.000784393
-0.000189076
-0.000132915
-0.000604789
-0.000174391
0.000199498
-0.000193038
-0.000147769
0.000210457
-0.000222471
1.10981e-05
-0.000120329
-0.000641047
0.000352483
-0.000288418
-0.000834592
0.000731052
-0.000459134
-0.000844859
0.00099367
-0.000666623
-0.000760322
0.00107965
-0.000913307
-0.000643345
0.000995107
-0.00123805
-0.000767167
0.000761574
-0.00169917
-0.00125715
0.000520499
-0.00254893
-0.00218212
-0.00395021
-0.00343407
-0.00315334
-0.00495547
-0.00487952
-0.00512564
-0.00572932
-0.00572933
-0.00604323
-0.00652932
-0.00592521
-0.00742784
-0.00543953
-0.00834283
-0.00461251
-0.00922523
-0.00346217
-0.0099918
-0.0019852
-0.0104307
-9.71688e-05
-0.0101437
0.00180104
-0.0101813
0.00329003
-0.0104987
0.00445994
-0.0100676
0.00530314
-0.00931134
0.0058045
-0.0084378
0.0059401
-0.0075304
0.0056439
-0.00663085
0.00481538
-0.00582141
0.00311787
-0.00520031
-0.0050125
0.000209656
-0.000154133
0.000158869
0.000370105
-9.943e-05
0.000311967
0.000475792
-0.000102776
0.000428581
0.000530688
-0.000109797
0.00053068
0.000521285
-8.756e-05
0.000630697
0.000449424
-6.48538e-05
0.000749931
0.000331914
-7.50155e-05
0.000889059
0.000170436
-0.000104354
0.00103181
-6.03193e-05
-0.000116198
0.00115042
-0.000344477
-0.000123343
0.00123892
-0.000613393
-0.000132707
0.00126306
-0.0008232
-0.000141292
0.00122572
-0.000962264
-0.000141705
0.00113808
-0.00104509
-0.00013324
0.00102612
-0.00106667
-0.000148601
0.000909801
-0.00100783
-0.000197274
0.00080887
-0.000843941
-0.000279439
0.000717428
-0.00062077
-0.000320362
0.000588874
-0.000347185
-0.000333237
0.000431491
-0.000392014
0.000261914
-0.000102317
-0.00011993
-0.00103894
-0.000110794
-0.00017482
-0.000590516
-1.76774e-05
-0.000373966
-0.000178248
0.000185134
-0.000515418
0.000185133
0.000300066
-0.000404029
0.000315583
0.000300064
-0.000259855
0.000390829
0.000281766
-0.000261841
0.000474694
0.000208464
-0.000267351
0.000540627
9.31421e-05
-0.000280407
0.000600976
-3.8873e-05
-0.000302294
0.000627078
-0.000173145
-0.000316569
0.000657228
-0.00029765
-0.000312447
0.000673989
-0.000376855
-0.000318316
0.000641489
-0.000371675
-0.000364909
0.000594839
-0.000343
-0.000388211
0.00050855
-0.000284816
-0.000437862
0.000450092
-0.000101319
-0.00063071
0.000411627
4.28071e-05
-0.000679735
0.000140927
9.2675e-05
-0.000578455
-0.000284241
-0.00053796
-0.00072179
0.000644678
0.000511187
-0.000355574
0.000793866
0.000544343
0.000253341
0.000570051
0.000448884
0.000343967
0.000178914
0.000266861
0.000178921
-0.00018421
6.91522e-05
-5.3757e-05
-0.000251522
-0.000243322
-5.05114e-05
-6.2967e-05
-0.000577569
5.19415e-05
5.45234e-05
-0.000567739
2.08119e-05
7.43404e-05
-0.000544636
-1.34788e-05
5.68872e-05
-0.000548769
-5.73503e-05
3.56384e-05
-0.000566103
-1.88185e-05
5.05132e-05
-0.000595791
9.65853e-05
0.000137246
-0.000616181
0.000161755
0.000332161
-0.000698768
0.000217532
0.000373148
-0.000518737
0.000107323
0.000112641
-0.000132713
2.33177e-05
-0.000234956
7.89011e-05
0.000139328
-0.000477969
0.000197403
0.000187112
-0.000396587
0.000278234
-9.04784e-06
0.000301117
-0.000687755
0.00138251
-0.000537497
0.00296778
0.00222806
-4.24147e-05
0.003169
0.00253031
0.000411682
0.00287272
0.00228658
0.000754316
0.00228659
0.00169401
0.000853247
0.00163228
0.00105848
0.000528392
0.00108081
0.000556415
-4.03916e-05
0.000582182
0.000257722
-0.000437549
0.000172814
0.000150239
-0.000732498
-0.00010278
0.000108078
-0.000819942
-0.000363121
7.60883e-05
-0.000840522
-0.000356915
7.97973e-06
-0.000822945
-3.15139e-05
-0.000193527
-0.000608446
0.000240436
-0.000644742
-0.000220514
0.000569272
-0.00126353
0.000264271
0.000978457
-0.00185996
0.000693674
0.001463
-0.00217342
0.000719902
0.00204864
-0.00198723
0.000409086
0.00260936
-0.00126379
-1.56989e-05
0.00289291
-0.000434168
0.00267855
0.0015607
-0.00223807
0.00190352
0.00246978
-0.00117405
0.00292117
0.00305159
-0.000420079
0.0033561
0.00328787
0.000281754
0.00328788
0.00321157
0.000702335
0.0029645
0.00282827
0.000740154
0.0025324
0.00215197
0.000546371
0.00198135
0.00142066
0.000198605
0.00134356
0.000739092
-0.000239102
0.00067344
0.000207439
-0.000597646
2.59234e-05
-0.00029625
-0.000670994
-6.95568e-05
-0.000962444
-0.000368326
0.000587073
-0.00174667
8.90914e-05
0.00123328
-0.00248847
0.000466708
0.00186098
-0.00299015
0.000662233
0.00246284
-0.00310785
0.000628149
0.00294917
-0.00288138
0.000269209
0.00328187
-0.00234656
-0.000365509
0.00333169
-0.00151332
-0.00106295
0.00289888
-0.00208869
0.00190603
0.00158424
-0.00366186
-0.000190066
0.00241018
-0.00194478
0.00145558
0.00288582
-0.00101333
0.00256873
0.00311155
-0.000169708
0.00311155
0.00307747
0.000512078
0.00321708
0.00276031
0.000838281
0.00304304
0.00223618
0.000857113
0.00270875
0.00157309
0.000663402
0.00225069
0.000864399
0.000344551
0.00161216
0.000203751
-1.21145e-05
0.000849433
-0.000499757
-4.71937e-05
0.000696109
-0.00128991
0.000308821
0.0014583
-0.0020363
0.000657798
0.00215997
-0.00261546
0.000853054
0.00264811
-0.00296997
0.000822254
0.00300348
-0.00304192
0.00049675
0.00319303
-0.00284511
-0.000145388
0.00308587
-0.00240317
-0.000928343
0.00252555
-0.00160635
-0.00181415
0.00139512
-0.00353865
-0.000240336
0.00131008
-0.00465296
-0.00152915
0.00210086
-0.00248421
0.000297398
0.00248479
-0.00131379
0.00169504
0.00252076
-0.000241648
0.00252076
0.00239748
0.000500019
0.00293026
0.00213039
0.000895067
0.00301184
0.0017361
0.000997793
0.00288832
0.0012441
0.00089963
0.00265476
0.000668484
0.000721402
0.00235974
1.65081e-05
0.000597322
0.00196714
-0.000655359
0.000607
0.00191936
-0.00126311
0.000744109
0.00230691
-0.00176783
0.000929471
0.00260955
-0.00217138
0.00102539
0.00283949
-0.00244838
0.000910015
0.00295496
-0.00258289
0.000515697
0.00285641
-0.00255373
-0.000192308
0.00242105
-0.00216259
-0.0012282
0.00157429
-0.00134405
-0.00238147
0.000170767
-0.00456899
-0.00161818
0.000673938
-0.00495564
-0.00258486
0.00122754
-0.00269211
-0.000855776
0.00143561
-0.00129792
0.000525523
0.00148038
-0.000331201
0.00148037
0.00140042
0.000376148
0.00198819
0.00123709
0.000835762
0.00215732
0.00102392
0.000965887
0.0021349
0.000749534
0.000923488
0.00202742
0.000414878
0.000854894
0.00194477
-0.000122401
0.00100971
0.00191444
-0.000648896
0.00102084
0.00190006
-0.000975329
0.000890253
0.00191781
-0.00123069
0.000958038
0.00198615
-0.001422
0.000994385
0.0020733
-0.00156834
0.000856416
0.00206812
-0.00163824
0.000406128
0.00186771
-0.00156109
-0.000296085
0.00133595
-0.00130552
-0.0012469
0.000363454
-0.000704001
-0.00263343
-0.000986087
-0.00490934
-0.00266678
-0.000631977
-0.0039635
-0.00371868
-0.000711868
-0.00226486
-0.00242228
-0.000655789
-0.00123397
-0.00125287
-0.000499686
-0.000643409
-0.000499692
-0.000265465
-0.000148385
-0.000245152
-6.67797e-05
0.000151699
-0.000173915
8.22911e-05
0.000308869
-0.000264886
0.000136012
0.000437623
-0.000352252
4.22598e-05
0.000627076
-0.000283222
-0.000179689
0.001076
-3.73818e-05
-0.000393013
0.00108841
-7.67261e-05
-0.000448209
0.00064743
-0.000343032
-0.000358221
0.00045628
-0.000422824
-0.000170365
0.00032329
-0.000361625
6.05656e-05
0.000166052
-0.000300892
0.00034447
-0.000124803
-0.000396322
0.000543241
-0.000627195
-0.000634832
0.000644676
-0.0012173
-0.00138819
0.000609833
-0.00224763
-0.00253309
-0.00394373
-0.00378985
-0.00366728
-0.0052517
-0.00560924
-0.00544854
-0.00652932
-0.00604323
-0.00685103
-0.00685103
-0.00669465
-0.0077326
-0.00616457
-0.00872122
-0.00531031
-0.00977064
-0.00409299
-0.0107715
-0.00242818
-0.0114685
-0.000103283
-0.0113926
0.00223464
-0.0114308
0.00391765
-0.0115343
0.00515605
-0.0108498
0.00602834
-0.00986035
0.0065765
-0.0088199
0.00675757
-0.00783629
0.00645918
-0.00695965
0.00556313
-0.00614267
0.0036452
-0.00553001
-0.00531103
0.000223017
-0.000163581
9.94309e-05
0.000391873
-9.21068e-05
0.00023521
0.000533747
-9.56576e-05
0.000382359
0.000630704
-8.75607e-05
0.000521277
0.000662472
-6.35419e-05
0.000662464
0.000629331
-5.42528e-05
0.000837317
0.000535716
-7.37316e-05
0.0010564
0.000363611
-0.000102997
0.00130691
7.97326e-05
-0.000127306
0.0015616
-0.000316582
-0.000139809
0.00177505
-0.000691199
-0.000144184
0.00178187
-0.000957146
-0.000136458
0.00162813
-0.00111364
-0.00011911
0.00141368
-0.00118504
-0.00010368
0.0012012
-0.00117986
-0.00010888
0.00101351
-0.00109044
-0.000143732
0.000863188
-0.000906372
-0.00020379
0.000737159
-0.000655768
-0.000257193
0.00059548
-0.000354353
-0.000308965
0.000439063
-0.000386447
0.000294034
-0.000142205
-0.000364485
-0.000695825
-6.45555e-05
-0.000427485
-0.000332785
0.000114042
-0.00046881
1.63122e-05
0.000315583
-0.00040403
0.000300065
0.000426184
-0.000284741
0.000426183
0.000478389
-0.000255493
0.000539864
0.000483237
-0.000269496
0.000665611
0.000396275
-0.000266929
0.000791524
0.000214682
-0.000277107
0.000932375
-2.21825e-05
-0.000297474
0.00102161
-0.000262439
-0.000304963
0.00105827
-0.000446733
-0.000300066
0.0010219
-0.000532174
-0.000304121
0.000911947
-0.000512913
-0.000335825
0.000807729
-0.000426697
-0.000375388
0.000688848
-0.000307192
-0.000385843
0.000572704
-0.00012066
-0.000439912
0.000461227
4.58801e-05
-0.000525784
0.000242991
0.00014023
-0.00058943
-9.81085e-05
-0.000532759
-0.000435228
6.57891e-05
0.000457182
-0.00124303
0.000126153
0.000331487
-0.000565991
5.62953e-05
0.000223926
-0.00027891
-5.37631e-05
6.91522e-05
-0.000184206
-0.000113658
-0.000164955
-0.000113651
9.34905e-06
-0.000492399
6.33882e-05
0.000194494
-0.000620223
0.000217527
0.000260986
-0.000584411
0.000271805
0.000210101
-0.000572528
0.000332831
7.41607e-05
-0.000556209