/*--------------------------------*- C++ -*----------------------------------*\
| =========                 |                                                 |
| \\      /  F ield         | OpenFOAM: The Open Source CFD Toolbox           |
|  \\    /   O peration     | Version:  1.7.1                                 |
|   \\  /    A nd           | Web:      www.OpenFOAM.com                      |
|    \\/     M anipulation  |                                                 |
\*---------------------------------------------------------------------------*/
FoamFile
{
    version     2.0;
    format      ascii;
    class       volVectorField;
    location    "2000";
    object      U;
}
// * * * * * * * * * * * * * * * * * * * * * * * * * * * * * * * * * * * * * //

dimensions      [0 1 -1 0 0 0 0];

internalField   nonuniform List<vector> 
4000
(
(5.97401e-05 -0.00424088 5.97196e-05)
(0.000252067 -0.00184075 0.000499106)
(0.000695297 0.00040282 0.000409557)
(0.000743412 0.00101957 0.000377388)
(0.000481373 -0.000174137 0.000409293)
(0.000273377 -0.0010861 0.000485341)
(1.59053e-05 -0.00110718 0.000541619)
(-0.000325808 -0.000469037 0.000537982)
(-0.000740587 -0.000203856 0.000498392)
(-0.00117302 -0.000169701 0.000462548)
(-0.00161435 -0.000308699 0.000486303)
(-0.00199281 -0.00057364 0.000539272)
(-0.00220626 -0.000929404 0.00058271)
(-0.00232026 -0.00133222 0.000593373)
(-0.00236195 -0.00123744 0.000549301)
(-0.00224245 -0.000599123 0.000473892)
(-0.00203943 0.000303618 0.000461487)
(-0.00165347 0.000333038 0.000466797)
(-0.00107166 -0.00138214 0.000494532)
(-0.0005803 -0.00379523 0.000225993)
(0.00103181 0.00425233 0.00103179)
(-0.000926628 -1.10218e-05 0.000224503)
(-0.00343983 -0.00240732 -0.000280592)
(-0.00382009 -0.00245643 -0.000330575)
(-0.00299822 -0.00119272 -0.000478394)
(-0.0020556 -4.66551e-05 -0.000308641)
(-0.00184966 1.06519e-05 -0.000222591)
(-0.00152874 -0.000557651 -0.00017524)
(-0.00104345 -0.000679239 -0.000159575)
(-0.000399018 -0.000635839 -0.00021896)
(0.000354569 -0.000676309 -0.000216061)
(0.000872399 -0.000764515 -0.000169568)
(0.00117946 -0.000762214 -0.000172144)
(0.00125449 -0.000475059 -0.000205628)
(0.00138776 -0.000506199 -0.000288578)
(0.00217135 -0.0016144 -0.000390249)
(0.00304036 -0.00304597 -0.000185837)
(0.00286161 -0.00321154 -0.000217152)
(0.000922208 -0.000959025 2.14298e-05)
(-0.000599892 0.00259476 0.000423299)
(0.00378103 -0.00469598 0.00378104)
(0.00652786 0.00211828 0.00343419)
(0.00559651 0.00564528 0.00274848)
(0.00102267 0.00213273 0.00147569)
(-0.00364089 -0.000748635 -2.39347e-05)
(-0.00529319 -0.00179665 -0.000384568)
(-0.00487214 -0.00186725 -0.000450818)
(-0.00356638 -0.00156209 -0.000738203)
(-0.00205448 -0.00130432 -0.000864278)
(-0.000561061 -0.00129597 -0.00109028)
(0.00121166 -0.00130675 -0.00101703)
(0.00267907 -0.00129404 -0.000787269)
(0.00406189 -0.0015065 -0.000656555)
(0.00546874 -0.0021362 -0.000415392)
(0.00595211 -0.00236126 -0.000359609)
(0.00447982 -0.00137259 -7.47033e-05)
(0.000455633 0.000767324 0.00129278)
(-0.0050071 0.00457249 0.00283623)
(-0.00575996 0.00227716 0.00336589)
(-0.00346858 -0.00350711 0.00362437)
(0.00275782 -0.0176532 0.00275782)
(0.00733129 -0.0102054 0.00334562)
(0.0105742 -0.00370244 0.00357363)
(0.0115402 0.000895885 0.00332361)
(0.00909643 0.00338446 0.0027109)
(0.00498097 0.00318674 0.00218751)
(-0.00024248 -0.000278793 0.000695724)
(-0.00207219 -0.00167926 -0.000948471)
(-0.00213588 -0.00184335 -0.00173616)
(-0.000895382 -0.00186493 -0.00236214)
(0.00135162 -0.00200072 -0.00211965)
(0.00297867 -0.00216396 -0.00135383)
(0.00320577 -0.00206274 -0.000755847)
(0.00229736 -0.00140878 0.000418426)
(-0.0036081 0.0024346 0.00234393)
(-0.00791941 0.00322423 0.00279423)
(-0.0108524 0.000372549 0.00344714)
(-0.0102505 -0.00450162 0.00376359)
(-0.00724667 -0.0104303 0.00353892)
(-0.00286607 -0.0170506 0.00286407)
(0.00143297 -0.0256442 0.00143296)
(0.0042606 -0.0178938 0.00234269)
(0.00526124 -0.0107714 0.00288104)
(0.00645472 -0.00514173 0.00333757)
(0.006933 -0.00124033 0.00361248)
(0.00663855 0.000759851 0.0035566)
(0.00547134 0.00145985 0.00324898)
(0.00307896 0.00181782 0.00262764)
(0.000540531 0.00136607 0.00163977)
(0.000232585 0.000704715 0.000759868)
(0.000914696 0.00012307 0.000592861)
(0.0010235 0.000228932 0.00130731)
(-0.00197109 0.0013731 0.00255632)
(-0.00491608 0.00132986 0.00324589)
(-0.00636408 0.000472057 0.00361509)
(-0.00678397 -0.0015472 0.00363604)
(-0.00630123 -0.00572473 0.00332175)
(-0.0052577 -0.0114031 0.00288732)
(-0.00437822 -0.0181839 0.00234978)
(-0.00160795 -0.0251694 0.00134639)
(0.000477527 -0.0298133 0.000477513)
(0.0016504 -0.0224097 0.00163545)
(-1.3895e-06 -0.0155255 0.00220029)
(-0.000307005 -0.0102568 0.00271272)
(-0.000903856 -0.00691473 0.00314928)
(-0.00109034 -0.00506543 0.00329192)
(-0.00119233 -0.00379911 0.00321842)
(-0.000977092 -0.00281328 0.00310064)
(-0.000448822 -0.00229714 0.00306005)
(-0.000105929 -0.00212109 0.00319892)
(0.000119818 -0.00201925 0.00319745)
(0.000144004 -0.00209068 0.00301263)
(0.000510856 -0.00257379 0.00309664)
(0.000774661 -0.00382068 0.00319166)
(0.000671779 -0.00528486 0.00324622)
(0.000510072 -0.00720019 0.00310494)
(1.40414e-07 -0.0108162 0.0026309)
(-0.000346224 -0.0160966 0.00213046)
(-0.00197023 -0.0226765 0.00154758)
(-0.000722914 -0.0294088 0.000284489)
(-0.000387781 -0.0306003 -0.000387797)
(-0.000534065 -0.02409 0.000876676)
(-0.00379681 -0.0185382 0.00107942)
(-0.0049135 -0.0149545 0.00117111)
(-0.00561415 -0.012673 0.00108989)
(-0.00546364 -0.0113465 0.000942751)
(-0.00469254 -0.0104985 0.000744748)
(-0.00343683 -0.00985399 0.000630326)
(-0.00188518 -0.00939578 0.000777184)
(-0.000863896 -0.00909041 0.00124949)
(6.61095e-05 -0.00912184 0.00127139)
(0.00112562 -0.0094344 0.000753638)
(0.00275221 -0.00993137 0.000612499)
(0.00406738 -0.0106553 0.000727255)
(0.00489322 -0.0116027 0.000913492)
(0.00509137 -0.0129917 0.00104756)
(0.00441811 -0.0153344 0.00110768)
(0.00331672 -0.0189176 0.00101788)
(8.51004e-05 -0.0242935 0.000766765)
(9.67091e-05 -0.0302425 -0.000619407)
(-0.0016093 -0.0277518 -0.00160932)
(-0.00286279 -0.0230607 -0.000422254)
(-0.00698336 -0.0194876 -0.000720942)
(-0.0085931 -0.0176236 -0.00109487)
(-0.00921857 -0.0166878 -0.0016111)
(-0.00867531 -0.0162899 -0.00211647)
(-0.0072365 -0.0160812 -0.00257993)
(-0.00516159 -0.0158485 -0.0028851)
(-0.00272348 -0.0155282 -0.00283155)
(-0.00116029 -0.0151588 -0.0022105)
(0.000312682 -0.0152256 -0.00222727)
(0.00193133 -0.015634 -0.00289719)
(0.00446896 -0.0160084 -0.00292245)
(0.00659212 -0.0162872 -0.00260854)
(0.00807706 -0.0165349 -0.00215202)
(0.00865674 -0.0169535 -0.00165133)
(0.00805141 -0.0178947 -0.00113942)
(0.00646826 -0.0197177 -0.000758597)
(0.0024147 -0.0231516 -0.000518241)
(0.00131762 -0.02746 -0.00182401)
(-0.00366028 -0.0210786 -0.00366029)
(-0.00613324 -0.0181382 -0.00299212)
(-0.0107479 -0.016549 -0.00366452)
(-0.0125779 -0.0161893 -0.00441536)
(-0.013005 -0.0163194 -0.00519786)
(-0.0120492 -0.0166757 -0.00593206)
(-0.0099977 -0.0170611 -0.00654265)
(-0.00712542 -0.0173284 -0.00690983)
(-0.00375339 -0.017373 -0.00679145)
(-0.00157356 -0.0172006 -0.00582355)
(0.000751037 -0.0172525 -0.0058834)
(0.0030051 -0.0174603 -0.00691267)
(0.00648536 -0.0174516 -0.00700609)
(0.00940123 -0.0172046 -0.00662479)
(0.0114883 -0.0168298 -0.00600762)
(0.0124714 -0.0164752 -0.00526663)
(0.0120641 -0.0163342 -0.00447346)
(0.0102661 -0.0166543 -0.00370964)
(0.00572311 -0.0181489 -0.00306554)
(0.00337464 -0.0208759 -0.00382931)
(-0.00709288 -0.0132479 -0.00709289)
(-0.0116065 -0.0107885 -0.00793119)
(-0.0162291 -0.0096299 -0.00952761)
(-0.0179806 -0.00929102 -0.0111244)
(-0.0181642 -0.00916618 -0.0127377)
(-0.016879 -0.00909076 -0.0142924)
(-0.0143074 -0.00894599 -0.0157036)
(-0.0105893 -0.00864724 -0.0167932)
(-0.00598807 -0.00815746 -0.0171761)
(-0.00256676 -0.00766943 -0.0159591)
(0.00184815 -0.00766562 -0.0160731)
(0.00536294 -0.00819284 -0.0173578)
(0.0100495 -0.00871879 -0.0169534)
(0.0138028 -0.00903535 -0.0158472)
(0.0164016 -0.00918893 -0.0144241)
(0.0177114 -0.00926731 -0.0128557)
(0.0175493 -0.00938758 -0.0112216)
(0.0158234 -0.00970626 -0.00959757)
(0.0112521 -0.0108132 -0.0079844)
(0.00680439 -0.0131324 -0.00719698)
(0.000499121 -0.00184073 0.000252021)
(0.00099508 -0.000250259 0.000995046)
(0.00127471 0.000994503 0.00103962)
(0.00125167 0.00111101 0.00100219)
(0.00100353 0.000297171 0.00103542)
(0.000723428 -0.000491895 0.00115722)
(0.000372408 -0.000594445 0.00127411)
(-1.82344e-05 -0.00024455 0.00129924)
(-0.000530322 -0.00013891 0.00125035)
(-0.00106017 -0.000156057 0.00122366)
(-0.00161705 -0.000237731 0.00128989)
(-0.00211562 -0.000400628 0.00138852)
(-0.00246218 -0.000605345 0.0014616)
(-0.00269704 -0.000741125 0.00146232)
(-0.00284422 -0.000662415 0.00136513)
(-0.00280055 -0.000289732 0.00124296)
(-0.00252246 0.000297504 0.00116048)
(-0.0020825 0.0007067 0.00104327)
(-0.00149188 7.89372e-05 0.000898505)
(-0.000680644 -0.00117634 0.0003393)
(0.000224505 -1.10579e-05 -0.000926705)
(-0.00060069 -0.00173336 -0.000600723)
(-0.0021553 -0.00255442 -0.000713629)
(-0.00221163 -0.0021114 -0.000402422)
(-0.00160402 -0.00113128 -0.000448855)
(-0.000873715 -0.000243845 -0.000175329)
(-0.000808756 -5.21159e-05 3.82962e-05)
(-0.000684309 -0.000487874 9.20984e-05)
(-0.000494844 -0.000645861 0.000120386)
(-0.000259264 -0.000647901 5.36002e-05)
(1.02177e-05 -0.000694067 7.43514e-05)
(0.000214619 -0.000775229 0.000169171)
(0.000264322 -0.000773655 0.000206242)
(0.000254209 -0.000572744 0.000195639)
(0.00022377 -0.000650717 -1.60442e-05)
(0.000631198 -0.00167302 -0.000112279)
(0.00123628 -0.00287855 6.79907e-05)
(0.00149036 -0.0032318 -0.000441982)
(0.000757739 -0.00255358 -0.000790452)
(0.000117202 -0.00127638 -0.00123121)
(0.00343418 0.0021183 0.00652785)
(0.00531182 0.00482085 0.00531182)
(0.00516658 0.0047679 0.00410941)
(0.00265753 0.00141557 0.0027827)
(-0.00107624 -0.00132205 0.000433304)
(-0.00305397 -0.00209816 -0.000403246)
(-0.00288209 -0.00192038 -0.000394503)
(-0.00206531 -0.00161039 -0.000843634)
(-0.00110976 -0.00118443 -0.00111566)
(-0.000264385 -0.0012118 -0.00138599)
(0.000687684 -0.00133149 -0.00132154)
(0.0016054 -0.00141847 -0.000987961)
(0.00244056 -0.00170925 -0.000696721)
(0.00320991 -0.00233638 -0.000173375)
(0.00332675 -0.00247319 -0.000218358)
(0.00191236 -0.00207271 0.000266372)
(-0.00167711 -0.000155176 0.00265235)
(-0.00454656 0.00304501 0.00413247)
(-0.00472542 0.00413009 0.00510531)
(-0.00307232 0.00278974 0.00594844)
(0.0033456 -0.0102054 0.00733132)
(0.00793352 -0.00569912 0.00793356)
(0.0111421 -0.00113522 0.0075241)
(0.0120209 0.00201093 0.00634636)
(0.00986833 0.00324378 0.00482088)
(0.00620383 0.00253386 0.00352932)
(0.00236174 -0.000382524 0.00189273)
(-0.000151261 -0.00221819 -0.000617661)
(-0.000906325 -0.00217287 -0.00201447)
(-0.000315119 -0.00223879 -0.00285324)
(0.000832477 -0.00241672 -0.00277014)
(0.00173427 -0.00252256 -0.00170559)
(0.00149591 -0.0025029 -0.000635768)
(-0.000582335 -0.00158438 0.00175162)
(-0.00464605 0.00161535 0.00355464)
(-0.00857051 0.00298966 0.00477914)
(-0.0111119 0.00157642 0.00637771)
(-0.0106615 -0.00174804 0.00774278)
(-0.0076767 -0.00573935 0.00818232)
(-0.00334485 -0.00957862 0.00760911)
(0.00234268 -0.0178938 0.00426061)
(0.00619028 -0.0128289 0.0061903)
(0.00830645 -0.00738584 0.00704473)
(0.00986925 -0.00246053 0.00707086)
(0.0104683 0.00113994 0.00653528)
(0.00964766 0.00244051 0.00581618)
(0.00801308 0.00224758 0.00488871)
(0.00533149 0.00154093 0.00356569)
(0.00248483 7.67353e-05 0.00159929)
(0.00112767 -0.00183163 -0.000816396)
(0.000333803 -0.00241879 -0.00132396)
(-0.000970132 -0.000974037 0.00125253)
(-0.00400215 0.000945468 0.0033663)
(-0.00730692 0.00195035 0.00485199)
(-0.00919045 0.00211301 0.00591995)
(-0.0100577 0.000930114 0.00663195)
(-0.00952448 -0.00275762 0.00711562)
(-0.0080889 -0.00766105 0.00707688)
(-0.00610996 -0.0127405 0.00623091)
(-0.00237922 -0.0171812 0.00427631)
(0.00163545 -0.0224097 0.00165039)
(0.00486698 -0.0173138 0.00486698)
(0.00489231 -0.0113871 0.006614)
(0.00517859 -0.00577547 0.0074062)
(0.00485057 -0.00158832 0.00779318)
(0.00467112 0.000911205 0.00762798)
(0.00374374 0.0019241 0.00703972)
(0.00247371 0.00231742 0.00620705)
(0.00134035 0.0022662 0.0053429)
(0.000564363 0.00214005 0.00466993)
(7.87795e-05 0.00218003 0.00447305)
(-0.000950046 0.00226528 0.00510725)
(-0.00231886 0.002345 0.00607895)
(-0.00372793 0.00187547 0.00696707)
(-0.00473321 0.000665243 0.00760536)
(-0.00505981 -0.00184151 0.00775431)
(-0.00534853 -0.00612198 0.00731641)
(-0.0050938 -0.0116456 0.00647236)
(-0.00500329 -0.0171539 0.00467301)
(-0.0017331 -0.021743 0.00140913)
(0.00087668 -0.02409 -0.000534084)
(0.00377615 -0.019032 0.00377613)
(0.00201439 -0.013244 0.00599084)
(0.00144761 -0.00808806 0.00703045)
(0.000610133 -0.00421341 0.00759125)
(0.000111848 -0.001695 0.00775341)
(1.9275e-06 -0.000163732 0.0076967)
(-4.9569e-05 0.00041782 0.0075444)
(-0.000139257 0.000341642 0.00743981)
(-0.000310241 0.000185211 0.0073376)
(-0.000182122 0.000216543 0.0073145)
(-0.000345809 0.00040095 0.00740351)
(-0.000489026 0.000489783 0.00752843)
(-0.000541527 -0.000159584 0.00766645)
(-0.000674873 -0.00184481 0.00767988)
(-0.00113936 -0.00447781 0.00746331)
(-0.00192867 -0.00841086 0.00685035)
(-0.00248593 -0.0134859 0.00573724)
(-0.00406099 -0.0188684 0.00344674)
(-0.000996497 -0.0235392 -0.000901056)
(-0.000422248 -0.0230607 -0.00286281)
(0.00192571 -0.0182074 0.00192569)
(-0.00143631 -0.0131686 0.00411967)
(-0.00245947 -0.00945711 0.00478768)
(-0.00333758 -0.00664333 0.00482171)
(-0.00341958 -0.00456304 0.00462407)
(-0.00306073 -0.00290013 0.00447084)
(-0.00239111 -0.00153897 0.0044853)
(-0.00150154 -0.000512948 0.00474422)
(-0.000880929 0.000181202 0.00532151)
(-9.99553e-05 0.000211833 0.00535184)
(0.000543797 -0.000486194 0.00478175)
(0.00149028 -0.00157133 0.00449243)
(0.00222151 -0.00300397 0.00444219)
(0.00267409 -0.00474432 0.00454323)
(0.00267524 -0.00686898 0.00469464)
(0.00185879 -0.00968904 0.00460394)
(0.000831196 -0.0134135 0.00382823)
(-0.00227827 -0.0180488 0.00156781)
(0.000312146 -0.0226855 -0.00321374)
(-0.00299211 -0.0181382 -0.00613326)
(-0.00259841 -0.0141743 -0.00259843)
(-0.00662091 -0.0114435 -0.00131568)
(-0.00803094 -0.0101331 -0.0012544)
(-0.00859206 -0.00941822 -0.0017214)
(-0.00801211 -0.00913441 -0.00231418)
(-0.0066096 -0.00909128 -0.00275988)
(-0.00468641 -0.00918709 -0.00285903)
(-0.00251733 -0.0093003 -0.00230742)
(-0.00129606 -0.00901016 -0.000810151)
(0.000356848 -0.0090334 -0.000857864)
(0.00160562 -0.00933318 -0.00244387)
(0.00386478 -0.00922618 -0.00299528)
(0.00585066 -0.00914616 -0.0029071)
(0.00732331 -0.00920352 -0.00248268)
(0.00796851 -0.00950077 -0.00191117)
(0.00746845 -0.0102155 -0.00146868)
(0.0061315 -0.0115042 -0.00157975)
(0.00226715 -0.0141165 -0.0028938)
(0.00286202 -0.0179439 -0.00641706)
(-0.00793118 -0.0107885 -0.0116065)
(-0.0120786 -0.00719322 -0.0120786)
(-0.0168298 -0.00514564 -0.0139732)
(-0.0186085 -0.0040886 -0.0162234)
(-0.018942 -0.00331994 -0.0186293)
(-0.0178915 -0.00265735 -0.0210052)
(-0.0156433 -0.00196054 -0.0231898)
(-0.0122625 -0.00115313 -0.0249193)
(-0.00781037 -0.000201805 -0.0256664)
(-0.00384809 0.000858936 -0.0244196)
(0.00321098 0.000899871 -0.0245504)
(0.00721614 -0.000197593 -0.0258841)
(0.0117153 -0.00118007 -0.025148)
(0.0151369 -0.00200344 -0.0234246)
(0.0174257 -0.00270927 -0.021245)
(0.0185172 -0.00337977 -0.0188696)
(0.0182241 -0.00415461 -0.0164499)
(0.0164918 -0.0052045 -0.0141726)
(0.0118238 -0.00720716 -0.0122446)
(0.00776138 -0.0107032 -0.0117693)
(0.00040957 0.000402838 0.000695246)
(0.00103965 0.000994502 0.00127467)
(0.00141103 0.0012424 0.00141099)
(0.00153627 0.000875636 0.00147279)
(0.00147782 0.000246185 0.00160311)
(0.00123707 -0.000285585 0.00182063)
(0.00084534 -0.000364543 0.00202835)
(0.000391901 -0.000211257 0.00216185)
(-0.000209193 -0.000191654 0.00219739)
(-0.000910409 -0.000213967 0.00222977)
(-0.00163275 -0.000259727 0.00232719)
(-0.00228583 -0.000360715 0.0024191)
(-0.00276815 -0.00045717 0.00243953)
(-0.00309864 -0.000470637 0.00235681)
(-0.0032971 -0.000410926 0.00217742)
(-0.0032872 -0.000229595 0.00199076)
(-0.00292077 3.53751e-05 0.00180026)
(-0.00232708 0.000465853 0.00150021)
(-0.00160613 0.000642539 0.00119188)
(-0.000637892 0.000340442 0.000678124)
(-0.000280574 -0.00240742 -0.00343988)
(-0.00071359 -0.00255444 -0.00215533)
(-0.00129041 -0.00238646 -0.00129044)
(-0.000921096 -0.00189809 -0.000332099)
(-0.000202625 -0.00108548 5.90579e-05)
(0.000237966 -0.000224154 0.000330574)
(0.000171313 -0.00010373 0.000556242)
(0.000139328 -0.000458311 0.000633657)
(2.51755e-05 -0.000593105 0.000647441)
(-9.89552e-05 -0.000634394 0.000588542)
(-0.000217481 -0.000689088 0.000654763)
(-0.000357073 -0.000729242 0.000796477)
(-0.000564922 -0.000715739 0.000863111)
(-0.000634025 -0.000631686 0.000843771)
(-0.000657057 -0.000706929 0.000620227)
(-0.000581693 -0.00146824 0.000570708)
(-3.01198e-05 -0.00259805 0.00054519)
(0.000543037 -0.00310548 -0.000498323)
(0.00051723 -0.00325759 -0.00158337)
(0.000357738 -0.00358202 -0.00301587)
(0.00274848 0.00564521 0.00559651)
(0.00410941 0.00476785 0.00516658)
(0.00416401 0.00282881 0.00416402)
(0.00243286 -6.3096e-05 0.00261144)
(-0.000246131 -0.00182259 0.000422223)
(-0.00181678 -0.00208837 -0.000416022)
(-0.00160706 -0.00194339 -0.000406312)
(-0.000915734 -0.00160806 -0.000792073)
(-0.000386793 -0.00124692 -0.00118683)
(-7.06731e-06 -0.00129307 -0.00144962)
(0.000357748 -0.00139136 -0.00134275)
(0.000792945 -0.00149109 -0.00094802)
(0.00119802 -0.00174588 -0.0004907)
(0.00182312 -0.00232687 6.22289e-05)
(0.00207991 -0.00245052 -6.09654e-05)
(0.00111632 -0.00233672 0.00029354)
(-0.0014694 -0.00140122 0.00234631)
(-0.00346575 0.000822694 0.00384779)
(-0.00368058 0.00291906 0.00465493)
(-0.00251265 0.00441733 0.00483023)
(0.00357361 -0.00370248 0.0105742)
(0.00752406 -0.00113524 0.0111421)
(0.0103679 0.00128619 0.010368)
(0.010915 0.00279017 0.00855793)
(0.00896845 0.00312337 0.00631873)
(0.00581476 0.00185656 0.0043466)
(0.00274724 -0.000895642 0.00220139)
(0.000842453 -0.00236251 -0.000255095)
(1.37542e-05 -0.00241186 -0.00181073)
(0.000128599 -0.00245457 -0.0027938)
(0.000495683 -0.00253333 -0.00270729)
(0.000830484 -0.00270738 -0.00154045)
(0.000369192 -0.00266213 -0.000155839)
(-0.0012483 -0.00192052 0.0020832)
(-0.00422271 0.000748772 0.00417266)
(-0.00752692 0.00272679 0.00603652)
(-0.00973141 0.00252227 0.00826869)
(-0.00963299 0.000865149 0.0102739)
(-0.00713612 -0.00132379 0.0111604)
(-0.00348076 -0.00337842 0.0106321)
(0.00288103 -0.0107713 0.00526125)
(0.0070447 -0.00738583 0.00830646)
(0.00970085 -0.00384543 0.00970088)
(0.0114461 -0.000170798 0.00968065)
(0.0117503 0.00225066 0.00878734)
(0.0107587 0.00277825 0.00763924)
(0.00900987 0.00199903 0.00622797)
(0.00623636 0.000533505 0.00420942)
(0.00341158 -0.00149879 0.00152358)
(0.00146766 -0.00301599 -0.00125736)
(8.17106e-06 -0.00332589 -0.00167628)
(-0.00187188 -0.00235905 0.00110307)
(-0.00474886 -0.000165774 0.00389924)
(-0.00802405 0.00154933 0.00606587)
(-0.0101132 0.00238972 0.00770033)
(-0.0111765 0.00208267 0.00889287)
(-0.010912 -0.000229308 0.00973391)
(-0.00930303 -0.00380578 0.00970362)
(-0.00681923 -0.00709871 0.00831189)
(-0.00288055 -0.0101202 0.00530346)
(0.00220029 -0.0155254 -1.40158e-06)
(0.006614 -0.0113871 0.0048923)
(0.00788574 -0.00729934 0.00788575)
(0.00874392 -0.00292487 0.00927588)
(0.00899023 0.000725943 0.0096868)
(0.0084157 0.0025443 0.00925164)
(0.00696422 0.00294231 0.00825086)
(0.00495402 0.00266097 0.00684612)
(0.00287004 0.00207296 0.00515501)
(0.00116126 0.00146811 0.00308851)
(-8.78726e-05 0.00128246 0.0025627)
(-0.00202169 0.00191439 0.0047226)
(-0.00438523 0.00259567 0.00663779)
(-0.00661568 0.00287165 0.0081442)
(-0.00821912 0.00234976 0.00922977)
(-0.0089116 0.00055174 0.00968502)
(-0.00874221 -0.00300079 0.00919613)
(-0.00792679 -0.00720061 0.00771461)
(-0.00663714 -0.0109809 0.00465142)
(-0.00230166 -0.0148652 -0.000233011)
(0.00107942 -0.0185382 -0.00379683)
(0.00599085 -0.0132439 0.00201437)
(0.00590168 -0.0088098 0.00590167)
(0.00604997 -0.00438894 0.00803795)
(0.00552534 -0.000891854 0.00915766)
(0.00482068 0.00129599 0.00923438)
(0.00383953 0.00212954 0.00866256)
(0.00269601 0.00192984 0.00789529)
(0.0015107 0.00124952 0.00719374)
(0.000407949 0.000856271 0.00658017)
(-0.000517551 0.000856731 0.00653703)
(-0.00170468 0.00130209 0.00713851)
(-0.00297976 0.00201622 0.0078636)
(-0.0041716 0.00219386 0.00861301)
(-0.00520132 0.00124374 0.00913563)
(-0.00593521 -0.000993908 0.00896643)
(-0.0064229 -0.00445787 0.00776039)
(-0.00625298 -0.00869637 0.00552701)
(-0.00615704 -0.0128445 0.00160126)
(-0.00119469 -0.0180657 -0.00411882)
(-0.00072094 -0.0194876 -0.00698339)
(0.00411969 -0.0131686 -0.00143634)
(0.00257613 -0.00865046 0.0025761)
(0.00225183 -0.00427538 0.00449096)
(0.00145196 -0.000462803 0.00525739)
(0.00122679 0.00243772 0.00564845)
(0.000973007 0.00397641 0.0054525)
(0.000581432 0.00461695 0.00507311)
(0.000378378 0.00485594 0.0050486)
(-0.000100142 0.00488097 0.00544734)
(-0.000766599 0.00491815 0.00546001)
(-0.00121943 0.00495595 0.00509228)
(-0.00144615 0.0047376 0.00507691)
(-0.00178055 0.00405079 0.00538536)
(-0.00196156 0.00240512 0.00546919)
(-0.00214769 -0.000545028 0.00498456)
(-0.00284188 -0.00431766 0.00410823)
(-0.00306931 -0.00856892 0.0021036)
(-0.00431584 -0.0128746 -0.0018618)
(0.000632294 -0.0191947 -0.00729255)
(-0.00366452 -0.0165489 -0.010748)
(-0.00131566 -0.0114435 -0.00662093)
(-0.0039524 -0.00806027 -0.00395242)
(-0.00420535 -0.00606195 -0.00294896)
(-0.00435232 -0.0047782 -0.00312571)
(-0.00382069 -0.0040092 -0.00358258)
(-0.00273283 -0.00371754 -0.00362237)
(-0.00159015 -0.00393016 -0.00329287)
(-0.000695708 -0.00436541 -0.00232336)
(-0.000653545 -0.0036312 -0.000833808)
(-0.000554008 -0.00360879 -0.000887787)
(-0.00045119 -0.0043129 -0.00239631)
(0.00055617 -0.00383186 -0.00341845)
(0.00183903 -0.00365603 -0.00382661)
(0.00305067 -0.00397583 -0.00385738)
(0.00369733 -0.0047572 -0.00342535)
(0.00365547 -0.00603916 -0.00327407)
(0.00354765 -0.00802396 -0.00433444)
(0.00111243 -0.0113556 -0.00696397)
(0.0035833 -0.0164135 -0.0110057)
(-0.0095276 -0.00962989 -0.0162291)
(-0.0139732 -0.00514564 -0.0168298)
(-0.0189358 -0.00268157 -0.0189358)
(-0.0206919 -0.00129942 -0.0216578)
(-0.0209717 -0.000226737 -0.0246463)
(-0.0198705 0.000736163 -0.0276263)
(-0.0175953 0.00178435 -0.0304115)
(-0.0141436 0.00299721 -0.0327188)
(-0.00940815 0.00442654 -0.0338945)
(-0.00476953 0.0060491 -0.0326168)
(0.00410321 0.00611784 -0.0327403)
(0.00879754 0.00446158 -0.0341311)
(0.0135848 0.00301069 -0.0329806)
(0.0170957 0.00178611 -0.0306989)
(0.0194255 0.000732292 -0.027936)
(0.0205848 -0.000239699 -0.0249721)
(0.0203652 -0.00132507 -0.0219769)
(0.0186751 -0.0027035 -0.0192218)
(0.0138021 -0.00514876 -0.0170598)
(0.00941285 -0.00957922 -0.0164111)
(0.000377395 0.00101954 0.000743378)
(0.00100221 0.00111098 0.00125164)
(0.00147281 0.000875628 0.00153624)
(0.00178386 0.000498139 0.00178383)
(0.0018954 6.25183e-05 0.00204939)
(0.00174556 -0.000252382 0.00237195)
(0.00140339 -0.000264688 0.00272885)
(0.000920953 -0.000224452 0.00306123)
(0.000253732 -0.000247805 0.00329748)
(-0.000705737 -0.000291013 0.00346954)
(-0.0016809 -0.00031164 0.0035701)
(-0.00253173 -0.000348417 0.00356191)
(-0.00313885 -0.000368861 0.00341665)
(-0.00352186 -0.000337921 0.00316926)
(-0.00370747 -0.000296972 0.00286606)
(-0.00364881 -0.000244408 0.00258732)
(-0.00322439 -0.000207655 0.00231697)
(-0.0025185 -9.33189e-05 0.00189688)
(-0.00166166 1.68963e-05 0.00140958)
(-0.000624377 -0.000151068 0.000834489)
(-0.000330556 -0.00245646 -0.00382008)
(-0.000402393 -0.00211142 -0.00221163)
(-0.000332087 -0.00189809 -0.000921104)
(0.000254071 -0.0015024 0.000254069)
(0.000874594 -0.000776063 0.000748441)
(0.00107538 -0.000117061 0.00100717)
(0.0010263 -0.000174004 0.00126044)
(0.000909232 -0.000431858 0.00141129)
(0.000565209 -0.000562571 0.00151373)
(0.000120317 -0.000649657 0.00153219)
(-0.000396982 -0.000701263 0.00162323)
(-0.000856351 -0.000682877 0.0017439)
(-0.00124166 -0.000629656 0.00173348)
(-0.00132294 -0.000608363 0.00164378)
(-0.00123207 -0.000667281 0.00138801)
(-0.00112248 -0.0010489 0.0012542)
(-0.000673351 -0.00196619 0.00113687)
(-5.80568e-05 -0.0025498 0.000106016)
(0.000284423 -0.00282449 -0.00137048)
(0.000373629 -0.00312625 -0.00307944)
(0.00147565 0.00213262 0.00102254)
(0.00278268 0.00141553 0.0026575)
(0.00261141 -6.30987e-05 0.00243286)
(0.00140052 -0.00157923 0.00140054)
(-0.000298739 -0.00219968 -1.86866e-05)
(-0.000958293 -0.00202254 -0.000286226)
(-0.000564339 -0.0019181 -6.51808e-05)
(7.7377e-05 -0.00154268 -0.000311582)
(0.000254955 -0.00132646 -0.000575299)
(0.000258718 -0.00133253 -0.000774749)
(0.000132759 -0.00139903 -0.00065928)
(0.00011725 -0.00150877 -0.000223104)
(0.000231914 -0.00170244 0.000166995)
(0.000818913 -0.00218672 0.000512407)
(0.00132008 -0.00246245 0.00021898)
(0.00103846 -0.00241776 0.000164162)
(-0.000169809 -0.00233016 0.00106675)
(-0.00143583 -0.00145392 0.00176672)
(-0.00183376 -0.000320005 0.00160615)
(-0.000735815 0.000407464 -0.000897728)
(0.00332359 0.000895859 0.0115402)
(0.00634632 0.00201092 0.0120209)
(0.00855788 0.00279017 0.0109151)
(0.00876052 0.00313159 0.00876055)
(0.00712499 0.00262696 0.00631868)
(0.00461858 0.00066961 0.00415255)
(0.00243073 -0.00171082 0.00207986)
(0.00128277 -0.00257054 0.000289502)
(0.00062918 -0.00266507 -0.000922719)
(0.000436073 -0.00257669 -0.00188555)
(0.000316218 -0.00259463 -0.00186024)
(0.000245094 -0.00282924 -0.000696567)
(-0.000214367 -0.00282127 0.000515357)
(-0.00118338 -0.00241358 0.00204041)
(-0.00304471 -0.000586924 0.00377525)
(-0.00556115 0.00175927 0.0057352)
(-0.00741245 0.00281413 0.00807664)
(-0.00755964 0.00258556 0.010227)
(-0.0057439 0.00194125 0.0113833)
(-0.00309228 0.00120802 0.0109235)
(0.00333756 -0.00514169 0.00645472)
(0.00707083 -0.0024605 0.00986926)
(0.00968062 -0.000170788 0.0114461)
(0.0112215 0.00189594 0.0112215)
(0.0114354 0.00291815 0.0100623)
(0.0105658 0.00254606 0.00862264)
(0.00886082 0.00132352 0.0068847)
(0.00612033 -0.00052608 0.00456344)
(0.00347754 -0.00245049 0.00195156)
(0.00152263 -0.00341341 -0.000587802)
(-6.45082e-05 -0.00357146 -0.000976023)
(-0.00192823 -0.00299236 0.00160438)
(-0.0045245 -0.00126883 0.00416134)
(-0.0075154 0.000714869 0.00651616)
(-0.00972144 0.00208474 0.0085549)
(-0.010736 0.00259154 0.0100902)
(-0.0105867 0.00184358 0.0112145)
(-0.00917323 -3.10677e-05 0.0113969)
(-0.0067746 -0.00215239 0.00984572)
(-0.00332272 -0.00465812 0.00648875)
(0.00271272 -0.0102568 -0.000307019)
(0.0074062 -0.00577544 0.00517858)
(0.00927587 -0.00292485 0.00874392)
(0.0105094 -3.98487e-05 0.0105094)
(0.010892 0.00211397 0.0108702)
(0.0102879 0.00291808 0.0102712)
(0.0087596 0.00277756 0.00908532)
(0.00657157 0.00212277 0.00746678)
(0.00408535 0.00111647 0.00530349)
(0.00181483 -0.000113821 0.00248613)
(-0.000410636 -0.000411769 0.00188417)
(-0.00296659 0.000850669 0.00476499)
(-0.00574751 0.0020313 0.00720521)
(-0.0081576 0.00271764 0.00891861)
(-0.00986067 0.0027911 0.0101944)
(-0.0105905 0.00198063 0.0108449)
(-0.0103252 2.98695e-06 0.0104515)
(-0.00921075 -0.00265635 0.00859918)
(-0.00740678 -0.0053165 0.00495732)
(-0.00286474 -0.0097288 -0.000498467)
(0.00117112 -0.0149544 -0.00491352)
(0.00703045 -0.00808803 0.00144759)
(0.00803796 -0.00438893 0.00604995)
(0.00882272 -0.00140366 0.00882272)
(0.00865189 0.000966329 0.0100664)
(0.00794215 0.0023078 0.0101597)
(0.00675211 0.00252083 0.00957685)
(0.00516391 0.00182968 0.00867923)
(0.00326505 0.000703418 0.00768283)
(0.00125019 -0.000141422 0.00661115)
(-0.00114828 -0.000138373 0.00651248)
(-0.00327337 0.000742618 0.00756015)
(-0.00524997 0.00189301 0.00857557)
(-0.00687567 0.0025792 0.00945826)
(-0.00810208 0.00232893 0.0100114)
(-0.00884976 0.000990344 0.00985651)
(-0.0090605 -0.00127361 0.00851696)
(-0.00830037 -0.00407375 0.00564067)
(-0.00716285 -0.00764569 0.00101674)
(-0.0013 -0.014575 -0.00522963)
(-0.00109487 -0.0176236 -0.00859312)
(0.00478769 -0.00945709 -0.0024595)
(0.00449098 -0.00427537 0.0022518)
(0.00520796 0.000225858 0.00520794)
(0.00511008 0.00324951 0.00676495)
(0.00463202 0.00487397 0.007222)
(0.00396078 0.00552466 0.00702458)
(0.00307575 0.00563365 0.00658598)
(0.00210071 0.00551887 0.00634411)
(0.000637137 0.00540602 0.0063528)
(-0.00148131 0.00546848 0.00633274)
(-0.00286854 0.0056312 0.00629947)
(-0.00382617 0.0057618 0.00649836)
(-0.00463325 0.00563968 0.0068651)
(-0.00523741 0.00493722 0.00696783)
(-0.00567679 0.00332829 0.00639717)
(-0.00571017 0.000399357 0.00473788)
(-0.00489209 -0.00401034 0.0017132)
(-0.00491914 -0.00916514 -0.0029176)
(0.00101931 -0.0174097 -0.00888788)
(-0.00441536 -0.0161893 -0.0125779)
(-0.00125439 -0.0101331 -0.00803097)
(-0.00294894 -0.00606195 -0.00420538)
(-0.00201088 -0.00354351 -0.0020109)
(-0.00116304 -0.00186103 -0.000915964)
(-0.000460544 -0.000922041 -0.000732568)
(7.08237e-05 -0.000886711 -0.0012093)
(0.000427425 -0.00137206 -0.00156234)
(0.000459714 -0.00175796 -0.00133753)
(-0.000225486 -0.000683404 -0.000248682)
(-0.00101169 -0.000667552 -0.000385874)
(-0.00156772 -0.00163642 -0.00149982)
(-0.00142298 -0.00126188 -0.00176323)
(-0.00094768 -0.000803975 -0.0014814)
(-0.000287646 -0.000842484 -0.00109881)
(0.000583991 -0.00177226 -0.00136377)
(0.0015331 -0.00343619 -0.00247367)
(0.00263582 -0.00595696 -0.00467175)
(0.00112651 -0.0100238 -0.00841581)
(0.00435651 -0.0160973 -0.0128305)
(-0.0111244 -0.00929102 -0.0179806)
(-0.0162234 -0.00408859 -0.0186086)
(-0.0216578 -0.00129942 -0.0206919)
(-0.0234955 0.00028253 -0.0234955)
(-0.023669 0.00158982 -0.0265784)
(-0.022429 0.00276309 -0.0297535)
(-0.0200867 0.00405571 -0.0329668)
(-0.0165279 0.00557006 -0.0358932)
(-0.01138 0.0073802 -0.0376735)
(-0.00587418 0.00949592 -0.0368369)
(0.0051652 0.00958233 -0.0369672)
(0.0107503 0.00743089 -0.0378931)
(0.0159613 0.00560871 -0.0361491)
(0.0195856 0.00408738 -0.0332647)
(0.0219877 0.00279968 -0.0300855)
(0.023302 0.00162189 -0.0269416)