/*--------------------------------*- C++ -*----------------------------------*\
| =========                 |                                                 |
| \\      /  F ield         | OpenFOAM: The Open Source CFD Toolbox           |
|  \\    /   O peration     | Version:  1.7.1                                 |
|   \\  /    A nd           | Web:      www.OpenFOAM.com                      |
|    \\/     M anipulation  |                                                 |
\*---------------------------------------------------------------------------*/
FoamFile
{
    version     2.0;
    format      ascii;
    class       volScalarField;
    location    "1800";
    object      epsilon;
}
// * * * * * * * * * * * * * * * * * * * * * * * * * * * * * * * * * * * * * //

dimensions      [0 2 -3 0 0 0 0];

internalField   nonuniform List<scalar> 
4000
(
6.80912e-09
6.66133e-09
6.76492e-09
6.69953e-09
6.66542e-09
6.3981e-09
6.16939e-09
5.87832e-09
5.6069e-09
5.36819e-09
5.20807e-09
5.15209e-09
5.26443e-09
5.47237e-09
5.79217e-09
6.04831e-09
6.11984e-09
6.08489e-09
6.20299e-09
6.04974e-09
1.25401e-08
1.29528e-08
1.29279e-08
1.29981e-08
1.17228e-08
1.10565e-08
1.10458e-08
1.07082e-08
1.07086e-08
1.08931e-08
1.0737e-08
1.04373e-08
1.05233e-08
1.08421e-08
1.1492e-08
1.31479e-08
1.39499e-08
1.45759e-08
1.48996e-08
1.3071e-08
8.79401e-08
5.11296e-08
3.07509e-08
2.00768e-08
2.00502e-08
1.99644e-08
1.96244e-08
1.90266e-08
1.95314e-08
2.04473e-08
2.00333e-08
1.92063e-08
1.94681e-08
2.00217e-08
2.10048e-08
2.28005e-08
2.32552e-08
3.74322e-08
5.27353e-08
8.50119e-08
2.10657e-07
1.85179e-07
1.40771e-07
9.55966e-08
6.32405e-08
3.30236e-08
2.57878e-08
2.71223e-08
2.85277e-08
3.06382e-08
2.92494e-08
2.72175e-08
2.61136e-08
2.53789e-08
4.71862e-08
6.89136e-08
9.48121e-08
1.3211e-07
1.79162e-07
2.0894e-07
2.62372e-07
2.46978e-07
2.16953e-07
1.79853e-07
1.35292e-07
1.06058e-07
8.00176e-08
5.38014e-08
4.38289e-08
4.61514e-08
4.20606e-08
4.12415e-08
5.36253e-08
7.36395e-08
9.46194e-08
1.29164e-07
1.73919e-07
2.13093e-07
2.43876e-07
2.61327e-07
2.95381e-07
2.97437e-07
2.84212e-07
2.63229e-07
2.42659e-07
2.24624e-07
2.08169e-07
1.93952e-07
1.82335e-07
1.70046e-07
1.58773e-07
1.65499e-07
1.74583e-07
1.93552e-07
2.11206e-07
2.30785e-07
2.54635e-07
2.78483e-07
2.94517e-07
2.95035e-07
3.21526e-07
3.4704e-07
3.63883e-07
3.76357e-07
3.87011e-07
3.93862e-07
3.93768e-07
3.86486e-07
3.70804e-07
3.46479e-07
3.30369e-07
3.48977e-07
3.63791e-07
3.73022e-07
3.75959e-07
3.7278e-07
3.66066e-07
3.57525e-07
3.44467e-07
3.21725e-07
3.48521e-07
4.01279e-07
4.5339e-07
5.00447e-07
5.41742e-07
5.74043e-07
5.93514e-07
5.96872e-07
5.79965e-07
5.4253e-07
5.22825e-07
5.56665e-07
5.72376e-07
5.70419e-07
5.54332e-07
5.26111e-07
4.8933e-07
4.46835e-07
3.99015e-07
3.49237e-07
3.81375e-07
4.67467e-07
5.56812e-07
6.39924e-07
7.15456e-07
7.79063e-07
8.24962e-07
8.46239e-07
8.32719e-07
7.79759e-07
7.54293e-07
8.06711e-07
8.18325e-07
7.98295e-07
7.56861e-07
6.98393e-07
6.28279e-07
5.50392e-07
4.65671e-07
3.82719e-07
4.28315e-07
5.58962e-07
6.94175e-07
8.19261e-07
9.34873e-07
1.03709e-06
1.11969e-06
1.17329e-06
1.18321e-06
1.13309e-06
1.10089e-06
1.15756e-06
1.14556e-06
1.09239e-06
1.01322e-06
9.16493e-07
8.07243e-07
6.88325e-07
5.58145e-07
4.30406e-07
6.66133e-09
8.71276e-09
1.04673e-08
1.15904e-08
1.22673e-08
1.21453e-08
1.146e-08
1.04457e-08
9.5877e-09
8.96354e-09
8.62825e-09
8.65433e-09
9.08835e-09
9.59467e-09
1.01589e-08
1.05847e-08
1.04217e-08
9.16708e-09
8.08118e-09
5.99982e-09
1.29527e-08
1.5586e-08
1.76279e-08
1.92196e-08
1.75457e-08
1.70017e-08
1.52864e-08
1.29348e-08
1.20947e-08
1.19386e-08
1.16608e-08
1.16261e-08
1.27237e-08
1.47515e-08
1.5963e-08
1.80045e-08
1.89756e-08
1.84147e-08
1.83173e-08
1.41648e-08
5.11294e-08
3.92364e-08
3.56319e-08
3.93397e-08
2.97192e-08
2.63501e-08
2.27187e-08
1.84891e-08
1.78859e-08
1.81925e-08
1.79567e-08
1.78232e-08
1.98535e-08
2.48281e-08
2.68264e-08
3.63375e-08
4.29916e-08
3.88989e-08
4.381e-08
5.06504e-08
1.85179e-07
1.98852e-07
1.49126e-07
1.08253e-07
8.31658e-08
6.25668e-08
4.3911e-08
3.0524e-08
2.65408e-08
2.60783e-08
2.55913e-08
2.60281e-08
3.18088e-08
4.97278e-08
6.84513e-08
8.6584e-08
1.06113e-07
1.4351e-07
1.92956e-07
1.81418e-07
2.46978e-07
2.36403e-07
2.12174e-07
1.7142e-07
1.25064e-07
9.53804e-08
7.85221e-08
6.01345e-08
4.4183e-08
4.04479e-08
3.89297e-08
4.40447e-08
5.91766e-08
7.27565e-08
9.0409e-08
1.21088e-07
1.64289e-07
2.09262e-07
2.36969e-07
2.45891e-07
2.97436e-07
2.61074e-07
2.47304e-07
2.28645e-07
2.04005e-07
1.69198e-07
1.40121e-07
1.17946e-07
1.06615e-07
9.90208e-08
9.33634e-08
9.72292e-08
1.09318e-07
1.31876e-07
1.57267e-07
1.90715e-07
2.21629e-07
2.43493e-07
2.60423e-07
2.96648e-07
3.4704e-07
3.04422e-07
3.06607e-07
3.09859e-07
3.12275e-07
3.02641e-07
2.68489e-07
2.34297e-07
2.07296e-07
1.86579e-07
1.74072e-07
1.83929e-07
2.05248e-07
2.42407e-07
2.81143e-07
3.00229e-07
3.01617e-07
3.01266e-07
3.02175e-07
3.46852e-07
4.01279e-07
3.75425e-07
3.9982e-07
4.2586e-07
4.55299e-07
4.78871e-07
4.84465e-07
4.67901e-07
4.32188e-07
3.81845e-07
3.61166e-07
4.01085e-07
4.38152e-07
4.58486e-07
4.60469e-07
4.41023e-07
4.14575e-07
3.91252e-07
3.71301e-07
4.01998e-07
4.67467e-07
5.09708e-07
5.88205e-07
6.64273e-07
7.40726e-07
8.09483e-07
8.57629e-07
8.72445e-07
8.35261e-07
7.33819e-07
6.9918e-07
7.94077e-07
8.28839e-07
8.17751e-07
7.80807e-07
7.19593e-07
6.4933e-07
5.78374e-07
5.05597e-07
4.69407e-07
5.58962e-07
7.33355e-07
9.21328e-07
1.1052e-06
1.28441e-06
1.4517e-06
1.59524e-06
1.69718e-06
1.73109e-06
1.67312e-06
1.62672e-06
1.68966e-06
1.65446e-06
1.5554e-06
1.41905e-06
1.26091e-06
1.0912e-06
9.15619e-07
7.33747e-07
5.624e-07
6.76492e-09
1.04673e-08
1.30396e-08
1.48379e-08
1.55324e-08
1.56232e-08
1.50559e-08
1.40422e-08
1.31278e-08
1.24528e-08
1.20589e-08
1.20058e-08
1.24114e-08
1.28055e-08
1.31312e-08
1.35419e-08
1.3465e-08
1.18941e-08
9.51398e-09
6.10562e-09
1.29279e-08
1.76279e-08
2.19771e-08
2.21897e-08
2.04916e-08
2.04999e-08
1.85128e-08
1.63059e-08
1.58487e-08
1.58754e-08
1.55232e-08
1.52441e-08
1.61198e-08
1.83693e-08
1.95001e-08
2.0834e-08
2.33716e-08
2.07604e-08
1.79535e-08
1.37913e-08
3.07508e-08
3.5632e-08
4.29236e-08
4.3633e-08
3.37318e-08
3.28213e-08
2.75341e-08
2.22844e-08
2.14391e-08
2.0968e-08
2.07955e-08
2.12844e-08
2.39317e-08
2.99014e-08
3.18897e-08
3.89859e-08
5.04255e-08
4.43022e-08
3.85257e-08
3.13398e-08
1.40771e-07
1.49126e-07
1.21976e-07
1.02004e-07
8.75957e-08
7.22567e-08
5.43077e-08
3.75196e-08
3.21428e-08
2.84295e-08
2.83992e-08
3.14536e-08
3.98741e-08
5.73617e-08
7.62452e-08
9.16153e-08
1.02963e-07
1.20869e-07
1.46721e-07
1.37195e-07
2.16953e-07
2.12174e-07
1.88353e-07
1.50652e-07
1.15249e-07
9.33469e-08
8.25482e-08
6.88004e-08
5.46289e-08
4.25388e-08
4.22062e-08
5.14505e-08
6.42307e-08
7.53771e-08
8.89106e-08
1.12498e-07
1.44632e-07
1.83409e-07
2.11798e-07
2.16904e-07
2.84211e-07
2.47303e-07
2.19534e-07
1.91487e-07
1.58931e-07
1.29711e-07
1.06592e-07
8.83522e-08
7.69873e-08
6.63418e-08
6.31525e-08
7.28266e-08
8.49845e-08
1.02559e-07
1.23671e-07
1.51455e-07
1.85556e-07
2.16e-07
2.46454e-07
2.83547e-07
3.63883e-07
3.06607e-07
2.80821e-07
2.57412e-07
2.31377e-07
2.02112e-07
1.72311e-07
1.47507e-07
1.29036e-07
1.16667e-07
1.10228e-07
1.17524e-07
1.34507e-07
1.60154e-07
1.89226e-07
2.17275e-07
2.48701e-07
2.75232e-07
3.0496e-07
3.63679e-07
4.5339e-07
3.9982e-07
4.02502e-07
3.99119e-07
3.84547e-07
3.50247e-07
3.15748e-07
2.95799e-07
2.6885e-07
2.30255e-07
2.18139e-07
2.47541e-07
2.75311e-07
2.9832e-07
3.25982e-07
3.66154e-07
3.84859e-07
3.93524e-07
3.97398e-07
4.54738e-07
5.56812e-07
5.88205e-07
7.0958e-07
8.39238e-07
9.62275e-07
1.07787e-06
1.15805e-06
1.16536e-06
1.06476e-06
8.28217e-07
7.74027e-07
9.5639e-07
1.0597e-06
1.07166e-06
1.04109e-06
9.38139e-07
8.24814e-07
7.02032e-07
5.87553e-07
5.6043e-07
6.94175e-07
9.21329e-07
1.16464e-06
1.40842e-06
1.65225e-06
1.88742e-06
2.09739e-06
2.25496e-06
2.3197e-06
2.25242e-06
2.19168e-06
2.262e-06
2.19765e-06
2.04674e-06
1.84881e-06
1.62624e-06
1.39443e-06
1.16017e-06
9.23332e-07
6.99251e-07
6.69953e-09
1.15904e-08
1.48379e-08
1.66423e-08
1.75492e-08
1.80809e-08
1.78083e-08
1.71951e-08
1.66387e-08
1.62403e-08
1.58591e-08
1.54598e-08
1.54505e-08
1.54462e-08
1.52249e-08
1.52412e-08
1.48681e-08
1.35556e-08
1.07627e-08
6.06625e-09
1.29981e-08
1.92196e-08
2.21897e-08
2.17899e-08
2.2232e-08
2.27697e-08
2.05685e-08
1.92333e-08
1.94972e-08
2.01221e-08
1.96818e-08
1.88258e-08
1.90571e-08
2.08027e-08
2.20199e-08
2.19512e-08
2.28191e-08
2.29312e-08
1.92852e-08
1.34903e-08
2.00768e-08
3.93397e-08
4.3633e-08
3.82301e-08
3.66303e-08
3.66078e-08
2.97592e-08
2.57183e-08
2.48996e-08
2.45724e-08
2.42612e-08
2.47413e-08
2.69391e-08
3.24975e-08
3.58306e-08
3.65816e-08
4.41379e-08
4.9014e-08
4.30963e-08
2.14105e-08
9.55965e-08
1.08253e-07
1.02004e-07
9.50675e-08
8.43838e-08
7.17235e-08
5.50596e-08
4.19732e-08
3.56549e-08
3.17794e-08
3.17131e-08
3.54431e-08
4.30364e-08
5.74903e-08
7.53179e-08
9.13967e-08
1.004e-07
1.0739e-07
1.13066e-07
9.70057e-08
1.79853e-07
1.7142e-07
1.50652e-07
1.25394e-07
1.03659e-07
9.19669e-08
8.55984e-08
7.33879e-08
5.76449e-08
4.46303e-08
4.4496e-08
5.51727e-08
6.7519e-08
7.74866e-08
8.65684e-08
1.02205e-07
1.23202e-07
1.47215e-07
1.69237e-07
1.78794e-07
2.63229e-07
2.28645e-07
1.91487e-07
1.58531e-07
1.29665e-07
1.07195e-07
9.03545e-08
7.74911e-08
6.84575e-08
6.05527e-08
5.81821e-08
6.56653e-08
7.57337e-08
8.83257e-08
1.0437e-07
1.26047e-07
1.54188e-07
1.88815e-07
2.27823e-07
2.62731e-07
3.76357e-07
3.09859e-07
2.57412e-07
2.1363e-07
1.8e-07
1.54296e-07
1.32762e-07
1.1611e-07
1.04595e-07
9.79837e-08
9.47178e-08
9.95062e-08
1.11266e-07
1.28246e-07
1.48786e-07
1.73021e-07
2.0588e-07
2.53249e-07
3.09489e-07
3.76739e-07
5.00447e-07
4.2586e-07
3.99119e-07
3.63342e-07
3.24271e-07
3.06906e-07
2.98948e-07
2.94703e-07
2.75231e-07
2.34132e-07
2.2163e-07
2.54917e-07
2.77506e-07
2.88288e-07
2.99186e-07
3.18537e-07
3.52322e-07
3.94292e-07
4.27736e-07
5.03481e-07
6.39924e-07
6.64273e-07
8.39238e-07
1.07103e-06
1.26254e-06
1.39752e-06
1.55152e-06
1.63749e-06
1.53897e-06
1.25006e-06
1.19428e-06
1.42268e-06
1.51764e-06
1.46734e-06
1.35409e-06
1.22608e-06
1.0732e-06
8.4356e-07
6.69824e-07
6.46409e-07
8.19261e-07
1.1052e-06
1.40843e-06
1.71773e-06
2.03379e-06
2.34768e-06
2.6409e-06
2.8736e-06
2.98564e-06
2.92508e-06
2.8571e-06
2.91554e-06
2.80767e-06
2.58638e-06
2.30804e-06
2.00879e-06
1.70697e-06
1.40741e-06
1.1101e-06
8.26823e-07
6.66543e-09
1.22673e-08
1.55324e-08
1.75492e-08
1.90395e-08
1.98914e-08
2.01013e-08
2.01791e-08
2.04011e-08
2.07245e-08
2.03992e-08
1.917e-08
1.83155e-08
1.76435e-08
1.68678e-08
1.61005e-08
1.53597e-08
1.38479e-08
1.09856e-08
5.94344e-09
1.17228e-08
1.75458e-08
2.04917e-08
2.22321e-08
2.39408e-08
2.35067e-08
2.18699e-08
2.17125e-08
2.32191e-08
2.52507e-08
2.47016e-08
2.2441e-08
2.15284e-08
2.22134e-08
2.35688e-08
2.3316e-08
2.23728e-08
2.12156e-08
1.81202e-08
1.22489e-08
2.00503e-08
2.97192e-08
3.37318e-08
3.66304e-08
3.88804e-08
3.5956e-08
3.03559e-08
2.83454e-08
2.85706e-08
2.9702e-08
2.89117e-08
2.80614e-08
2.90489e-08
3.25642e-08
3.7538e-08
3.77264e-08
3.62344e-08
3.68538e-08
3.26563e-08
2.1012e-08
6.32404e-08
8.31659e-08
8.75957e-08
8.43838e-08
7.62132e-08
6.52201e-08
5.19359e-08
4.31639e-08
3.81842e-08
3.68558e-08
3.61363e-08
3.7716e-08
4.33952e-08
5.3713e-08
6.80824e-08
8.23015e-08
9.24199e-08
9.50154e-08
9.0278e-08
6.76373e-08
1.35291e-07
1.25064e-07
1.15249e-07
1.03659e-07
9.49561e-08
9.0939e-08
8.50622e-08
7.18702e-08
5.73438e-08
5.03732e-08
4.93149e-08
5.53059e-08
6.76487e-08
7.84138e-08
8.52176e-08
9.25681e-08
1.03628e-07
1.15632e-07
1.25669e-07
1.34674e-07
2.42658e-07
2.04005e-07
1.58931e-07
1.29665e-07
1.0816e-07
9.23841e-08
8.08659e-08
7.28875e-08
6.81558e-08
6.84736e-08
6.60485e-08
6.49158e-08
7.11655e-08
7.96813e-08
9.12814e-08
1.07072e-07
1.28269e-07
1.57131e-07
2.01726e-07
2.43138e-07
3.87011e-07
3.12275e-07
2.31376e-07
1.8e-07
1.49272e-07
1.28798e-07
1.14237e-07
1.05072e-07
1.02117e-07
1.06124e-07
1.06654e-07
1.02785e-07
1.0563e-07
1.14873e-07
1.28749e-07
1.48049e-07
1.77457e-07
2.27871e-07
3.1339e-07
3.88974e-07
5.41742e-07
4.553e-07
3.84547e-07
3.24271e-07
3.17281e-07
3.28192e-07
3.45855e-07
3.59784e-07
3.46946e-07
3.03529e-07
2.93012e-07
3.31293e-07
3.4783e-07
3.41776e-07
3.29564e-07
3.21902e-07
3.2873e-07
3.86187e-07
4.61909e-07
5.47563e-07
7.15456e-07
7.40726e-07
9.62275e-07
1.26254e-06
1.58219e-06
1.9416e-06
2.24587e-06
2.41052e-06
2.28582e-06
1.87017e-06
1.81021e-06
2.17606e-06
2.29833e-06
2.16727e-06
1.89649e-06
1.56935e-06
1.27001e-06
9.81497e-07
7.53772e-07
7.26034e-07
9.34873e-07
1.28441e-06
1.65225e-06
2.03379e-06
2.44107e-06
2.86405e-06
3.26969e-06
3.60682e-06
3.80237e-06
3.79614e-06
3.71836e-06
3.73011e-06
3.54293e-06
3.21948e-06
2.83032e-06
2.42376e-06
2.02941e-06
1.65712e-06
1.29396e-06
9.46101e-07
6.39811e-09
1.21453e-08
1.56232e-08
1.8081e-08
1.98915e-08
2.11413e-08
2.20955e-08
2.31457e-08
2.45651e-08
2.61888e-08
2.59401e-08
2.32113e-08
2.10478e-08
1.94357e-08
1.80779e-08
1.6735e-08
1.53207e-08
1.35879e-08
1.07657e-08
5.69164e-09
1.10565e-08
1.70018e-08
2.04999e-08
2.27698e-08
2.35067e-08
2.29837e-08
2.27501e-08
2.40395e-08
2.74563e-08
3.19785e-08
3.12383e-08
2.64787e-08
2.3712e-08
2.28612e-08
2.32298e-08
2.34463e-08
2.25535e-08
2.06417e-08
1.73682e-08
1.09889e-08
1.99644e-08
2.63501e-08
3.28213e-08
3.66079e-08
3.5956e-08
3.24162e-08
3.00019e-08
2.98172e-08
3.2231e-08
3.60631e-08
3.40757e-08
3.08888e-08
3.02305e-08
3.1495e-08
3.45703e-08
3.73083e-08
3.62445e-08
3.2276e-08
2.61922e-08
2.02357e-08
3.30234e-08
6.25668e-08
7.22567e-08
7.17236e-08
6.52201e-08
5.58242e-08
4.73666e-08
4.18952e-08
4.06334e-08
4.45895e-08
4.17855e-08
3.90946e-08
4.2157e-08
4.85354e-08
5.81065e-08
6.86232e-08
7.66445e-08
7.80229e-08
6.87743e-08
3.78648e-08
1.06058e-07
9.53804e-08
9.3347e-08
9.19669e-08
9.0939e-08
8.80811e-08
7.93855e-08
6.59637e-08
5.62713e-08
5.86266e-08
5.53331e-08
5.42139e-08
6.41203e-08
7.57267e-08
8.37957e-08
8.77105e-08
9.04562e-08
9.35448e-08
9.64309e-08
1.06241e-07
2.24624e-07
1.69198e-07
1.29711e-07
1.07195e-07
9.23841e-08
8.19449e-08
7.47565e-08
7.06138e-08
7.03947e-08
8.12585e-08
7.80055e-08
6.64786e-08
6.84114e-08
7.37855e-08
8.17965e-08
9.27319e-08
1.07815e-07
1.30437e-07
1.69942e-07
2.28021e-07
3.93862e-07
3.02641e-07
2.02112e-07
1.54296e-07
1.28798e-07
1.13889e-07
1.05513e-07
1.03533e-07
1.10075e-07
1.33071e-07
1.37803e-07
1.15419e-07
1.07717e-07
1.09605e-07
1.17604e-07
1.3179e-07
1.56473e-07
2.03997e-07
3.0607e-07
3.98666e-07
5.74043e-07
4.78871e-07
3.50247e-07
3.06906e-07
3.28192e-07
3.68493e-07
4.14503e-07
4.45338e-07
4.25999e-07
3.72396e-07
3.68567e-07
4.19452e-07
4.38784e-07
4.15235e-07
3.76691e-07
3.40624e-07
3.20058e-07
3.58358e-07
4.89651e-07
5.83699e-07
7.79063e-07
8.09483e-07
1.07787e-06
1.39752e-06
1.9416e-06
2.49173e-06
2.9722e-06
3.21882e-06
2.93046e-06
2.24257e-06
2.21946e-06
2.87305e-06
3.10788e-06
2.87791e-06
2.44409e-06
1.93696e-06
1.42982e-06
1.11129e-06
8.30299e-07
7.94804e-07
1.03709e-06
1.4517e-06
1.88742e-06
2.34768e-06
2.86405e-06
3.41115e-06
3.95085e-06
4.42102e-06
4.73721e-06
4.83964e-06
4.74266e-06
4.66459e-06
4.36362e-06
3.90924e-06
3.38771e-06
2.85785e-06
2.35411e-06
1.90111e-06
1.46817e-06
1.05348e-06
6.1694e-09
1.146e-08
1.50559e-08
1.78083e-08
2.01013e-08
2.20955e-08
2.40541e-08
2.64632e-08
2.97464e-08
3.43139e-08
3.42018e-08
2.81142e-08
2.39057e-08
2.10098e-08
1.88922e-08
1.70801e-08
1.52749e-08
1.31334e-08
1.01002e-08
5.3319e-09
1.10458e-08
1.52864e-08
1.85129e-08
2.05685e-08
2.18699e-08
2.27501e-08
2.41457e-08
2.76086e-08
3.51423e-08
5.00494e-08
4.89456e-08
3.37502e-08
2.6867e-08
2.36999e-08
2.232e-08
2.14232e-08
2.03946e-08
1.86741e-08
1.56786e-08
1.05179e-08
1.96245e-08
2.27187e-08
2.75341e-08
2.97593e-08
3.03559e-08
3.00019e-08
3.00894e-08
3.23538e-08
4.03834e-08
5.98231e-08
5.41519e-08
3.74568e-08
3.23431e-08
3.10464e-08
3.09933e-08
3.12902e-08
3.09624e-08
2.89387e-08
2.41805e-08
1.99761e-08
2.57879e-08
4.3911e-08
5.43077e-08
5.50596e-08
5.19359e-08
4.73666e-08
4.32595e-08
4.17248e-08
5.00563e-08
8.40133e-08
7.24617e-08
4.56885e-08
4.18692e-08
4.42759e-08
4.8537e-08
5.34231e-08
5.76364e-08
5.76514e-08
4.71497e-08
2.63489e-08
8.00176e-08
7.85221e-08
8.25482e-08
8.55984e-08
8.50622e-08
7.93854e-08
6.92416e-08
5.97374e-08
6.34152e-08
1.12929e-07
9.67985e-08
5.84752e-08
5.92738e-08
6.87654e-08
7.81466e-08
8.35573e-08
8.46979e-08
8.32497e-08
8.13281e-08
8.56286e-08
2.08169e-07
1.40121e-07
1.06592e-07
9.03545e-08
8.08659e-08
7.47564e-08
7.09837e-08
6.93927e-08
7.94298e-08
1.47278e-07
1.30946e-07
7.34519e-08
6.71388e-08
7.01094e-08
7.50671e-08
8.20906e-08
9.22395e-08
1.09167e-07
1.43804e-07
2.13428e-07
3.93768e-07
2.68489e-07
1.72311e-07
1.32762e-07
1.14237e-07
1.05513e-07
1.03398e-07
1.08953e-07
1.30791e-07
2.22568e-07
2.26376e-07
1.38202e-07
1.15227e-07
1.09612e-07
1.11557e-07
1.19891e-07
1.38176e-07
1.78369e-07
2.76238e-07
4.02013e-07
5.93514e-07
4.84465e-07
3.15748e-07
2.98948e-07
3.45855e-07
4.14503e-07
4.83549e-07
5.14841e-07
4.69529e-07
4.53246e-07
4.54165e-07
4.7666e-07
5.19808e-07
4.9062e-07
4.27527e-07
3.62724e-07
3.16272e-07
3.30734e-07
4.99346e-07
6.07734e-07
8.24962e-07
8.57629e-07
1.15806e-06
1.55152e-06
2.24587e-06
2.9722e-06
3.60233e-06
3.80899e-06
3.12999e-06
2.54629e-06
2.52458e-06
3.19346e-06
3.80115e-06
3.55121e-06
2.94497e-06
2.25435e-06
1.59003e-06
1.19769e-06
8.85359e-07
8.46641e-07
1.11969e-06
1.59524e-06
2.09739e-06
2.6409e-06
3.26969e-06
3.95085e-06
4.64381e-06
5.28693e-06
5.81823e-06
6.2325e-06
6.08141e-06
5.73664e-06
5.24383e-06
4.62158e-06
3.94637e-06
3.2806e-06
2.66229e-06
2.12333e-06
1.62137e-06
1.14298e-06
5.87834e-09
1.04458e-08
1.40423e-08
1.71951e-08
2.01791e-08
2.31457e-08
2.64632e-08
3.10507e-08
3.736e-08
4.60472e-08
4.53625e-08
3.50239e-08
2.76532e-08
2.27823e-08
1.96075e-08
1.70972e-08
1.47607e-08
1.22442e-08
9.17215e-09
5.00191e-09
1.07082e-08
1.29348e-08
1.63059e-08
1.92334e-08
2.17125e-08
2.40395e-08
2.76086e-08
3.60985e-08
5.34686e-08
8.6057e-08
8.38237e-08
5.15821e-08
3.44263e-08
2.62961e-08
2.27868e-08
2.04727e-08
1.82612e-08
1.57546e-08
1.28811e-08
1.00234e-08
1.90267e-08
1.84891e-08
2.22845e-08
2.57184e-08
2.83454e-08
2.98172e-08
3.23538e-08
4.1507e-08
6.95055e-08
1.9774e-07
1.84158e-07
6.40002e-08
4.0199e-08
3.28276e-08
3.04053e-08
2.86709e-08
2.61143e-08
2.2939e-08
1.94134e-08
1.94145e-08
2.71223e-08
3.05241e-08
3.75197e-08
4.19733e-08
4.31639e-08
4.18952e-08
4.17248e-08
5.1301e-08
1.05435e-07
4.37556e-07
3.94558e-07
9.39599e-08
4.99614e-08
4.28988e-08
4.32114e-08
4.42081e-08
4.30949e-08
3.91305e-08
3.23581e-08
2.86668e-08
5.38014e-08
6.01344e-08
6.88004e-08
7.33878e-08
7.18701e-08
6.59637e-08
5.97374e-08
6.46522e-08
1.50084e-07
7.91532e-07
7.01157e-07
1.30811e-07
6.29018e-08
6.0763e-08
6.70571e-08
7.25755e-08
7.41108e-08
7.05751e-08
6.37847e-08
6.06965e-08
1.93952e-07
1.17946e-07
8.83522e-08
7.74911e-08
7.28874e-08
7.06138e-08
6.93927e-08
7.68577e-08
1.85912e-07
1.11351e-06
9.73864e-07
1.617e-07
7.37938e-08
6.90364e-08
7.11554e-08
7.43406e-08
7.97875e-08
9.14816e-08
1.22174e-07
2.0026e-07
3.86486e-07
2.34297e-07
1.47507e-07
1.1611e-07
1.05072e-07
1.03533e-07
1.08953e-07
1.29359e-07
2.65773e-07
1.31115e-06
1.24091e-06
2.65e-07
1.3686e-07
1.16581e-07
1.11031e-07
1.12182e-07
1.23102e-07
1.55547e-07
2.45403e-07
3.9835e-07
5.96872e-07
4.67901e-07
2.958e-07
2.94703e-07
3.59785e-07
4.45338e-07
5.14841e-07
5.18175e-07
5.35134e-07
1.31343e-06
1.2638e-06
5.45674e-07
5.39657e-07
5.34407e-07
4.65012e-07
3.80159e-07
3.13729e-07
3.12312e-07
4.86364e-07
6.15937e-07
8.46239e-07
8.72445e-07
1.16536e-06
1.63749e-06
2.41052e-06
3.21882e-06
3.80899e-06
3.59923e-06
3.07537e-06
4.19479e-06
4.13783e-06
3.12885e-06
3.74228e-06
3.87989e-06
3.25176e-06
2.44843e-06
1.68692e-06
1.21536e-06
9.06764e-07
8.74238e-07
1.17329e-06
1.69719e-06
2.25496e-06
2.8736e-06
3.60682e-06
4.42103e-06
5.28693e-06
6.18714e-06
7.20805e-06
8.46275e-06
8.19954e-06
7.08139e-06
6.14966e-06
5.28989e-06
4.44378e-06
3.64195e-06
2.91508e-06
2.29705e-06
1.73556e-06
1.20495e-06
5.60692e-09
9.58773e-09
1.31278e-08
1.66388e-08
2.04011e-08
2.45652e-08
2.97464e-08
3.736e-08
4.5241e-08
5.51213e-08
5.25142e-08
4.12091e-08
3.26152e-08
2.5185e-08
2.06186e-08
1.72573e-08
1.43531e-08
1.15549e-08
8.50402e-09
4.75922e-09
1.07087e-08
1.20947e-08
1.58487e-08
1.94973e-08
2.32191e-08
2.74563e-08
3.51422e-08
5.34685e-08
8.65202e-08
5.11658e-07
5.11005e-07
8.46622e-08
5.02216e-08
3.2122e-08
2.49941e-08
2.11038e-08
1.78588e-08
1.47562e-08
1.17247e-08
9.98794e-09
1.95315e-08
1.7886e-08
2.14392e-08
2.48996e-08
2.85706e-08
3.2231e-08
4.03834e-08
6.95053e-08
2.41209e-07
2.48967e-06
2.48676e-06
2.41494e-07
6.69914e-08
3.96148e-08
3.20866e-08
2.86039e-08
2.50563e-08
2.16738e-08
1.83549e-08
1.97263e-08
2.85277e-08
2.65409e-08
3.21428e-08
3.56549e-08
3.81842e-08
4.06333e-08
5.00562e-08
1.05435e-07
5.79077e-07
5.38611e-06
5.34006e-06
5.83645e-07
1.03856e-07
5.07988e-08
4.19858e-08
3.96649e-08
3.71193e-08
3.33525e-08
2.76405e-08
2.97496e-08
4.3829e-08
4.4183e-08
5.46289e-08
5.76448e-08
5.73438e-08
5.62712e-08
6.3415e-08
1.50084e-07
1.16253e-06
9.04894e-06
8.97507e-06
1.1531e-06
1.46537e-07
6.4009e-08
5.76674e-08
5.87782e-08
5.91704e-08
5.60929e-08
4.59494e-08
4.93024e-08
1.82335e-07
1.06615e-07
7.69873e-08
6.84575e-08
6.81558e-08
7.03946e-08
7.94295e-08
1.85911e-07
1.69672e-06
1.21605e-05
1.19827e-05
1.64512e-06
1.79537e-07
7.97959e-08
7.14168e-08
6.94446e-08
7.01116e-08
7.90894e-08
1.10126e-07
1.8972e-07
3.70804e-07
2.07296e-07
1.29037e-07
1.04595e-07
1.02117e-07
1.10075e-07
1.30791e-07
2.65773e-07
2.00532e-06
1.33782e-05
1.3201e-05
1.96768e-06
2.73544e-07
1.40126e-07
1.18937e-07
1.1023e-07
1.12392e-07
1.37986e-07
2.20674e-07
3.86107e-07
5.79965e-07
4.32188e-07
2.6885e-07
2.75231e-07
3.46946e-07
4.25999e-07
4.69529e-07
5.35134e-07
1.88312e-06
1.16603e-05
1.1412e-05
1.86623e-06
5.60674e-07
5.01029e-07
4.5537e-07
3.72837e-07
2.97085e-07
2.87425e-07
4.53713e-07
6.03581e-07
8.32719e-07
8.35261e-07
1.06476e-06
1.53897e-06
2.28582e-06
2.93046e-06
3.12999e-06
3.07537e-06
4.47957e-06
9.5861e-06
9.40446e-06
4.49496e-06
3.15052e-06
3.28381e-06
3.04268e-06
2.37103e-06
1.61212e-06
1.13203e-06
8.75904e-07
8.66735e-07
1.18321e-06
1.7311e-06
2.3197e-06
2.98564e-06
3.80238e-06
4.73721e-06
5.81823e-06
7.20805e-06
9.22184e-06
1.18591e-05
1.13966e-05
9.03634e-06
7.153e-06
5.83787e-06
4.78814e-06
3.86583e-06
3.05149e-06
2.38108e-06
1.78339e-06
1.22396e-06
5.36821e-09
8.96358e-09
1.24529e-08
1.62403e-08
2.07246e-08
2.61888e-08
3.4314e-08
4.60472e-08
5.51213e-08
5.84065e-08
5.24912e-08
4.72724e-08
3.94259e-08
2.87592e-08
2.19459e-08
1.76729e-08
1.42288e-08
1.11943e-08
8.15862e-09
4.62372e-09
1.08931e-08
1.19387e-08
1.58755e-08
2.01222e-08
2.52508e-08
3.19786e-08
5.00493e-08
8.60571e-08
5.11657e-07
7.16755e-07
6.81866e-07
4.9475e-07
8.23856e-08
4.49482e-08
2.83622e-08
2.24844e-08
1.81995e-08
1.47588e-08
1.1658e-08
1.03568e-08
2.04474e-08
1.81926e-08
2.09681e-08
2.45725e-08
2.97021e-08
3.60632e-08
5.98231e-08
1.9774e-07
2.48966e-06
1.76176e-06
1.70626e-06
2.57987e-06
2.06307e-07
5.84968e-08
3.53514e-08
2.92514e-08
2.45039e-08
2.11527e-08
1.86279e-08
2.08489e-08
3.06383e-08
2.60784e-08
2.84295e-08
3.17794e-08
3.68559e-08
4.45896e-08
8.40133e-08
4.37556e-07
5.3861e-06
3.3051e-06
3.21617e-06
5.69719e-06
4.78484e-07
8.76145e-08
4.61689e-08
3.80316e-08
3.29147e-08
2.94775e-08
2.70553e-08
3.20692e-08
4.61515e-08
4.04479e-08
4.25389e-08
4.46304e-08
5.03733e-08
5.86267e-08
1.12929e-07
7.91531e-07
9.04894e-06
5.36439e-06
5.21754e-06
9.61712e-06
8.6707e-07
1.18235e-07
6.026e-08
5.15589e-08
4.57939e-08
4.36018e-08
4.21853e-08
5.11854e-08
1.70046e-07
9.90208e-08
6.63418e-08
6.05528e-08
6.84736e-08
8.12585e-08
1.47277e-07
1.11351e-06
1.21605e-05
7.75426e-06
7.52454e-06
1.2833e-05
1.19117e-06
1.53951e-07
8.42636e-08
7.0598e-08
6.24098e-08
6.69437e-08
1.00347e-07
1.77679e-07
3.46479e-07
1.86579e-07
1.16667e-07
9.79839e-08
1.06124e-07
1.33071e-07
2.22567e-07
1.31114e-06
1.33782e-05
1.00035e-05
9.68807e-06
1.40556e-05
1.39166e-06
2.39026e-07
1.43644e-07
1.14383e-07
1.05273e-07
1.25835e-07
2.00781e-07
3.62333e-07
5.4253e-07
3.81845e-07
2.30255e-07
2.34132e-07
3.0353e-07
3.72396e-07
4.53246e-07
1.31343e-06
1.16603e-05
1.12429e-05
1.08445e-05
1.22308e-05
1.39589e-06
4.90805e-07
4.07342e-07
3.33857e-07
2.57795e-07
2.49746e-07
4.01513e-07
5.67225e-07
7.7976e-07
7.3382e-07
8.28218e-07
1.25006e-06
1.87017e-06
2.24257e-06
2.54629e-06
4.19479e-06
9.5861e-06
1.14914e-05
1.10487e-05
9.8946e-06
4.33739e-06
2.64679e-06
2.36449e-06
1.98791e-06
1.342e-06
9.06413e-07
7.72737e-07
8.15708e-07
1.13309e-06
1.67312e-06
2.25242e-06
2.92508e-06
3.79615e-06
4.83965e-06
6.2325e-06
8.46275e-06
1.18591e-05
1.36173e-05
1.29098e-05
1.17122e-05
8.44276e-06
6.26786e-06
4.91275e-06
3.88577e-06
3.01418e-06
2.3324e-06
1.73759e-06
1.18106e-06
5.2081e-09
8.62829e-09
1.20589e-08
1.58592e-08
2.03993e-08
2.59402e-08
3.4202e-08
4.53627e-08
5.25144e-08
5.24914e-08
4.46011e-08
4.24778e-08
3.69897e-08
2.758e-08
2.11874e-08
1.71142e-08
1.38013e-08
1.08827e-08
7.94651e-09
4.53546e-09
1.07371e-08
1.16609e-08
1.55233e-08
1.96819e-08
2.47017e-08
3.12385e-08
4.8946e-08
8.38242e-08
5.11009e-07
6.81867e-07
6.30814e-07
4.67998e-07
7.73914e-08
4.28978e-08
2.73755e-08
2.19559e-08
1.79669e-08
1.471e-08
1.17077e-08
1.04071e-08
2.00335e-08
1.79568e-08
2.07956e-08
2.42612e-08
2.89119e-08
3.40759e-08
5.41524e-08
1.84159e-07
2.48678e-06
1.70626e-06
1.64999e-06
2.50112e-06
1.90739e-07
5.38393e-08
3.39118e-08
2.88129e-08
2.44492e-08
2.11745e-08
1.86084e-08
2.04994e-08
2.92495e-08
2.55914e-08
2.83992e-08
3.17132e-08
3.61364e-08
4.17857e-08
7.24625e-08
3.94561e-07
5.3401e-06
3.21617e-06
3.17995e-06
5.51008e-06
4.31768e-07
7.78139e-08
4.41197e-08
3.76417e-08
3.29495e-08
2.95046e-08
2.6722e-08
3.06616e-08
4.20607e-08
3.89298e-08
4.22062e-08
4.4496e-08
4.9315e-08
5.53334e-08
9.67997e-08
7.01165e-07
8.97514e-06
5.21754e-06
5.21611e-06
9.30743e-06
7.74282e-07
1.05423e-07
5.79326e-08
5.04368e-08
4.51257e-08
4.29618e-08
4.12298e-08
4.79278e-08
1.58772e-07
9.33632e-08
6.31524e-08
5.81822e-08
6.60487e-08
7.8006e-08
1.30948e-07
9.73878e-07
1.19828e-05
7.52454e-06
7.55758e-06
1.24388e-05
1.07871e-06
1.45701e-07
8.37456e-08
6.92106e-08
5.99501e-08
6.273e-08
9.39842e-08
1.67618e-07
3.3037e-07
1.74072e-07
1.10228e-07
9.4718e-08
1.06654e-07
1.37803e-07
2.26378e-07
1.24092e-06
1.32011e-05
9.68805e-06
9.73998e-06
1.37514e-05
1.38054e-06
2.53473e-07
1.51395e-07
1.16036e-07
1.02463e-07
1.20057e-07
1.88238e-07
3.48135e-07
5.22826e-07
3.61166e-07
2.18139e-07
2.2163e-07
2.93013e-07
3.68568e-07
4.54167e-07
1.26381e-06
1.14121e-05
1.08445e-05
1.08551e-05
1.19747e-05
1.39809e-06
4.99235e-07
4.05917e-07
3.2534e-07
2.45579e-07
2.37314e-07
3.82815e-07
5.49163e-07
7.54295e-07
6.99181e-07
7.74029e-07
1.19429e-06
1.81022e-06
2.21946e-06
2.52459e-06
4.13786e-06
9.40453e-06
1.10487e-05
1.09754e-05
9.73344e-06
4.31465e-06
2.61942e-06
2.31213e-06
1.92254e-06
1.27921e-06
8.47718e-07
7.36797e-07
7.91934e-07
1.10089e-06
1.62672e-06
2.19169e-06
2.8571e-06
3.71837e-06
4.74267e-06
6.08143e-06
8.19957e-06
1.13966e-05
1.29098e-05
1.2515e-05
1.13982e-05
8.2703e-06
6.15881e-06
4.83082e-06
3.8169e-06
2.95269e-06
2.27799e-06
1.69596e-06
1.15231e-06
5.15211e-09
8.65438e-09
1.20058e-08
1.54599e-08
1.91702e-08
2.32115e-08
2.81144e-08
3.50241e-08
4.12092e-08
4.72725e-08
4.24778e-08
3.50251e-08
2.8478e-08
2.25482e-08
1.87762e-08
1.58756e-08
1.32803e-08
1.07437e-08
7.95168e-09
4.5233e-09
1.04373e-08
1.16261e-08
1.52442e-08
1.88259e-08
2.24411e-08
2.64788e-08
3.37504e-08
5.15824e-08
8.46626e-08
4.94752e-07
4.67999e-07
7.94861e-08
4.59794e-08
2.99353e-08
2.37612e-08
2.03996e-08
1.75558e-08
1.4784e-08
1.1929e-08
1.00587e-08
1.92064e-08
1.78232e-08
2.12845e-08
2.47414e-08
2.80615e-08
3.08889e-08
3.7457e-08
6.40007e-08
2.41496e-07
2.57989e-06
2.50113e-06
2.40957e-07
6.27792e-08
3.72955e-08
3.1061e-08
2.83338e-08
2.52753e-08
2.21019e-08
1.89378e-08
1.97774e-08
2.72176e-08
2.60281e-08
3.14536e-08
3.54431e-08
3.7716e-08
3.90947e-08
4.56888e-08
9.39608e-08
5.83649e-07
5.69723e-06
5.51009e-06
5.87752e-07
9.57043e-08
4.72632e-08
4.04934e-08
3.89962e-08
3.67738e-08
3.30406e-08
2.77447e-08
2.90531e-08
4.12413e-08
4.40446e-08
5.14505e-08
5.51727e-08
5.53059e-08
5.4214e-08
5.84754e-08
1.30812e-07
1.15311e-06
9.61719e-06
9.30744e-06
1.13959e-06
1.33411e-07
5.9558e-08
5.45262e-08
5.52222e-08
5.52564e-08
5.28947e-08
4.56075e-08
4.74033e-08
1.65499e-07
9.72291e-08
7.28266e-08
6.56653e-08
6.49159e-08
6.64788e-08
7.34523e-08
1.61702e-07
1.64514e-06
1.28331e-05
1.24388e-05
1.64575e-06
1.70416e-07
7.78597e-08
6.97948e-08
6.71388e-08
6.65746e-08
7.38079e-08
1.01106e-07
1.75529e-07
3.48978e-07
1.83928e-07
1.17524e-07
9.95062e-08
1.02785e-07
1.15419e-07
1.38203e-07
2.65003e-07
1.9677e-06
1.40557e-05
1.37515e-05
2.01486e-06
2.92759e-07
1.54363e-07
1.28423e-07
1.13933e-07
1.10309e-07
1.28816e-07
2.00266e-07
3.67532e-07
5.56666e-07
4.01085e-07
2.47541e-07
2.54917e-07
3.31293e-07
4.19453e-07
4.76661e-07
5.45676e-07
1.86625e-06
1.22309e-05
1.19748e-05
1.92258e-06
5.84247e-07
5.14382e-07
4.61257e-07
3.68935e-07
2.84569e-07
2.70135e-07
4.23954e-07
5.83161e-07
8.06713e-07
7.94078e-07
9.56391e-07
1.42269e-06
2.17607e-06
2.87306e-06
3.19346e-06
3.12886e-06
4.49499e-06
9.89466e-06
9.73347e-06
4.58766e-06
3.17789e-06
3.23807e-06
2.97934e-06
2.29675e-06
1.52953e-06
1.04938e-06
8.35219e-07
8.44046e-07
1.15756e-06
1.68967e-06
2.26201e-06
2.91554e-06
3.73012e-06
4.6646e-06
5.73666e-06
7.08142e-06
9.03637e-06
1.17123e-05
1.13982e-05
8.9606e-06
7.07764e-06
5.76811e-06
4.72752e-06
3.81144e-06
3.001e-06
2.33975e-06
1.75322e-06
1.20527e-06
5.26446e-09
9.0884e-09
1.24114e-08
1.54506e-08
1.83156e-08
2.10479e-08
2.39058e-08
2.76532e-08
3.26152e-08
3.94259e-08
3.69896e-08
2.84779e-08
2.29192e-08
1.94097e-08
1.70582e-08
1.50614e-08
1.31206e-08
1.10036e-08
8.33334e-09
4.62705e-09
1.05233e-08
1.27238e-08
1.61199e-08
1.90571e-08
2.15285e-08
2.37121e-08
2.68671e-08
3.44264e-08
5.02216e-08
8.23858e-08
7.73914e-08
4.59794e-08
3.10987e-08
2.46355e-08
2.19182e-08
2.00647e-08
1.82382e-08
1.60853e-08
1.32991e-08
9.99907e-09
1.94682e-08
1.98535e-08
2.39317e-08
2.69391e-08
2.90489e-08
3.02306e-08
3.23432e-08
4.01991e-08