/*--------------------------------*- C++ -*----------------------------------*\
| =========                 |                                                 |
| \\      /  F ield         | OpenFOAM: The Open Source CFD Toolbox           |
|  \\    /   O peration     | Version:  1.7.1                                 |
|   \\  /    A nd           | Web:      www.OpenFOAM.com                      |
|    \\/     M anipulation  |                                                 |
\*---------------------------------------------------------------------------*/
FoamFile
{
    version     2.0;
    format      ascii;
    class       volScalarField;
    location    "1800";
    object      k;
}
// * * * * * * * * * * * * * * * * * * * * * * * * * * * * * * * * * * * * * //

dimensions      [0 2 -2 0 0 0 0];

internalField   nonuniform List<scalar> 
4000
(
2.61208e-06
2.57457e-06
2.60257e-06
2.58891e-06
2.58242e-06
2.51292e-06
2.45313e-06
2.37608e-06
2.30321e-06
2.23804e-06
2.19338e-06
2.17666e-06
2.20658e-06
2.26287e-06
2.35027e-06
2.4176e-06
2.43471e-06
2.42586e-06
2.46059e-06
2.42114e-06
3.93287e-06
4.01865e-06
4.01492e-06
4.03227e-06
3.76651e-06
3.62274e-06
3.62212e-06
3.54808e-06
3.5479e-06
3.58837e-06
3.55312e-06
3.48539e-06
3.50315e-06
3.57188e-06
3.71396e-06
4.06311e-06
4.22477e-06
4.35371e-06
4.42011e-06
4.04714e-06
1.44173e-05
1.00531e-05
7.17485e-06
5.38982e-06
5.38736e-06
5.37391e-06
5.31413e-06
5.20631e-06
5.29674e-06
5.46114e-06
5.38419e-06
5.2326e-06
5.27894e-06
5.37621e-06
5.55144e-06
5.86414e-06
5.93741e-06
8.13643e-06
1.02143e-05
1.40333e-05
2.58224e-05
2.37024e-05
1.975e-05
1.52778e-05
1.1613e-05
7.54204e-06
6.37726e-06
6.59758e-06
6.81712e-06
7.14867e-06
6.92732e-06
6.60015e-06
6.42292e-06
6.29702e-06
9.52008e-06
1.22423e-05
1.51353e-05
1.88882e-05
2.31452e-05
2.56536e-05
2.98813e-05
2.87046e-05
2.63362e-05
2.3257e-05
1.92511e-05
1.63734e-05
1.35877e-05
1.04334e-05
9.08222e-06
9.38947e-06
8.81471e-06
8.68796e-06
1.03617e-05
1.28195e-05
1.51476e-05
1.86372e-05
2.27143e-05
2.60019e-05
2.84447e-05
2.97863e-05
3.23313e-05
3.24853e-05
3.15241e-05
2.99646e-05
2.83938e-05
2.69776e-05
2.56475e-05
2.44644e-05
2.34725e-05
2.23972e-05
2.13776e-05
2.19703e-05
2.27724e-05
2.44024e-05
2.58646e-05
2.7435e-05
2.92857e-05
3.10801e-05
3.22577e-05
3.2296e-05
3.42087e-05
3.6002e-05
3.71697e-05
3.80277e-05
3.87539e-05
3.92192e-05
3.9219e-05
3.8735e-05
3.76774e-05
3.60058e-05
3.48651e-05
3.6159e-05
3.71758e-05
3.78011e-05
3.79944e-05
3.77719e-05
3.73075e-05
3.67159e-05
3.581e-05
3.42152e-05
3.60977e-05
3.96647e-05
4.30439e-05
4.59889e-05
4.8499e-05
5.0419e-05
5.15608e-05
5.17583e-05
5.07762e-05
4.85648e-05
4.73693e-05
4.93897e-05
5.03102e-05
5.01887e-05
4.92313e-05
4.75347e-05
4.52801e-05
4.26068e-05
3.95004e-05
3.61403e-05
3.83353e-05
4.39227e-05
4.93754e-05
5.41942e-05
5.83962e-05
6.18215e-05
6.42363e-05
6.53395e-05
6.46414e-05
6.18678e-05
6.0503e-05
6.3274e-05
6.38726e-05
6.28162e-05
6.06107e-05
5.74327e-05
5.35053e-05
4.89705e-05
4.37931e-05
3.84182e-05
4.1427e-05
4.94976e-05
5.72165e-05
6.39243e-05
6.98259e-05
7.48419e-05
7.87738e-05
8.12713e-05
8.17268e-05
7.93924e-05
7.78719e-05
8.05251e-05
7.99625e-05
7.74586e-05
7.36551e-05
6.88716e-05
6.32629e-05
5.68651e-05
4.94286e-05
4.15531e-05
2.57457e-06
3.08017e-06
3.48013e-06
3.72993e-06
3.88058e-06
3.85473e-06
3.70837e-06
3.48734e-06
3.29525e-06
3.15166e-06
3.07246e-06
3.07711e-06
3.1766e-06
3.29175e-06
3.42022e-06
3.50958e-06
3.46933e-06
3.18648e-06
2.93383e-06
2.40499e-06
4.01865e-06
6.15148e-06
7.20489e-06
7.97038e-06
7.76545e-06
7.69566e-06
7.41136e-06
6.80206e-06
6.63236e-06
6.65833e-06
6.51818e-06
6.39771e-06
6.64654e-06
7.11122e-06
7.3848e-06
7.83828e-06
7.81002e-06
7.38364e-06
6.99022e-06
4.27212e-06
1.00531e-05
9.1963e-06
9.72378e-06
1.22515e-05
1.07932e-05
9.81469e-06
9.45021e-06
8.59493e-06
8.65431e-06
8.9339e-06
8.73085e-06
8.43618e-06
8.77114e-06
9.57553e-06
1.01688e-05
1.22453e-05
1.21946e-05
9.94863e-06
9.96397e-06
9.93997e-06
2.37024e-05
2.73248e-05
2.29955e-05
1.91154e-05
1.66452e-05
1.49522e-05
1.36427e-05
1.0895e-05
1.01635e-05
1.04392e-05
1.00959e-05
9.76316e-06
1.10016e-05
1.34565e-05
1.52302e-05
1.7147e-05
1.88008e-05
2.22911e-05
2.66579e-05
2.33414e-05
2.87046e-05
3.16944e-05
3.03198e-05
2.63054e-05
2.12421e-05
1.78409e-05
1.59193e-05
1.37295e-05
1.21712e-05
1.24951e-05
1.19093e-05
1.16527e-05
1.34128e-05
1.51063e-05
1.72692e-05
2.08573e-05
2.55506e-05
3.00302e-05
3.17388e-05
2.86024e-05
3.24853e-05
3.42494e-05
3.39801e-05
3.22748e-05
2.95669e-05
2.56399e-05
2.22837e-05
1.96387e-05
1.82904e-05
1.75316e-05
1.68344e-05
1.72189e-05
1.8719e-05
2.1418e-05
2.44136e-05
2.82535e-05
3.16676e-05
3.37133e-05
3.42476e-05
3.2416e-05
3.6002e-05
3.81056e-05
3.94553e-05
4.01069e-05
4.0434e-05
3.93647e-05
3.56361e-05
3.18671e-05
2.88272e-05
2.64733e-05
2.50947e-05
2.62812e-05
2.88104e-05
3.30386e-05
3.7336e-05
3.94445e-05
3.9545e-05
3.91497e-05
3.80038e-05
3.59809e-05
3.96647e-05
4.35105e-05
4.67788e-05
4.96872e-05
5.28959e-05
5.5416e-05
5.61739e-05
5.48306e-05
5.14587e-05
4.64706e-05
4.46132e-05
4.87746e-05
5.2448e-05
5.42135e-05
5.41692e-05
5.20424e-05
4.9059e-05
4.62957e-05
4.32838e-05
3.97061e-05
4.39228e-05
5.16668e-05
5.8316e-05
6.43035e-05
7.02348e-05
7.54046e-05
7.8837e-05
7.97031e-05
7.66533e-05
6.86015e-05
6.60893e-05
7.36969e-05
7.67035e-05
7.62065e-05
7.37466e-05
6.91204e-05
6.35634e-05
5.78362e-05
5.14711e-05
4.40375e-05
4.94976e-05
5.93543e-05
6.91396e-05
7.80854e-05
8.6334e-05
9.36885e-05
9.977e-05
0.000103973
0.000105342
0.000102957
0.000101043
0.000103641
0.000102196
9.80679e-05
9.22367e-05
8.52325e-05
7.73801e-05
6.88158e-05
5.93493e-05
4.96906e-05
2.60257e-06
3.48013e-06
4.02816e-06
4.40147e-06
4.54248e-06
4.55928e-06
4.44817e-06
4.24698e-06
4.06203e-06
3.9221e-06
3.83872e-06
3.82674e-06
3.91067e-06
3.99127e-06
4.059e-06
4.13708e-06
4.11534e-06
3.78887e-06
3.2661e-06
2.43105e-06
4.01492e-06
7.2049e-06
8.88279e-06
9.40399e-06
9.16266e-06
9.28004e-06
8.99175e-06
8.53107e-06
8.60923e-06
8.76963e-06
8.58999e-06
8.30541e-06
8.38536e-06
8.85708e-06
9.05356e-06
9.2873e-06
9.58058e-06
8.55714e-06
7.36172e-06
4.1943e-06
7.17483e-06
9.72379e-06
1.27717e-05
1.44049e-05
1.25033e-05
1.21347e-05
1.14227e-05
1.03783e-05
1.04953e-05
1.06281e-05
1.04105e-05
1.02029e-05
1.06288e-05
1.17154e-05
1.21315e-05
1.38065e-05
1.52475e-05
1.24601e-05
1.00324e-05
7.22989e-06
1.975e-05
2.29955e-05
2.11797e-05
1.98385e-05
1.89767e-05
1.83443e-05
1.66592e-05
1.31909e-05
1.23362e-05
1.19015e-05
1.16431e-05
1.18669e-05
1.35416e-05
1.63602e-05
1.81801e-05
1.94711e-05
1.9963e-05
2.09834e-05
2.26756e-05
1.93697e-05
2.63362e-05
3.03198e-05
2.93286e-05
2.56019e-05
2.16595e-05
1.92028e-05
1.82026e-05
1.68566e-05
1.56467e-05
1.396e-05
1.35632e-05
1.45425e-05
1.58162e-05
1.70455e-05
1.86671e-05
2.14348e-05
2.49586e-05
2.88017e-05
3.02932e-05
2.63121e-05
3.15241e-05
3.39801e-05
3.31392e-05
3.06821e-05
2.68941e-05
2.32486e-05
2.03146e-05
1.795e-05
1.65473e-05
1.54885e-05
1.4971e-05
1.59792e-05
1.75854e-05
1.98929e-05
2.26496e-05
2.6171e-05
3.01858e-05
3.29403e-05
3.40071e-05
3.14602e-05
3.71697e-05
3.94553e-05
3.94522e-05
3.81226e-05
3.56368e-05
3.21232e-05
2.83859e-05
2.52171e-05
2.27955e-05
2.11318e-05
2.03197e-05
2.14229e-05
2.37777e-05
2.71314e-05
3.0845e-05
3.43081e-05
3.75683e-05
3.92287e-05
3.94821e-05
3.71456e-05
4.30439e-05
4.67788e-05
4.98727e-05
5.14991e-05
5.17566e-05
4.93856e-05
4.62673e-05
4.41473e-05
4.1153e-05
3.67011e-05
3.52343e-05
3.88116e-05
4.20581e-05
4.46802e-05
4.75324e-05
5.07599e-05
5.08835e-05
4.95784e-05
4.68061e-05
4.31222e-05
4.93754e-05
5.8316e-05
7.04983e-05
8.2874e-05
9.44543e-05
0.000104673
0.000111662
0.000113229
0.00010751
9.20422e-05
8.77442e-05
0.000100637
0.000106641
0.000106523
0.000103167
9.38174e-05
8.27694e-05
7.05731e-05
5.85295e-05
4.95806e-05
5.72165e-05
6.91396e-05
8.08645e-05
9.18142e-05
0.000102144
0.000111627
0.000119756
0.000125669
0.000128043
0.000125525
0.000123262
0.000125899
0.000123505
0.000117782
0.000110051
0.000101015
9.11516e-05
8.06112e-05
6.92074e-05
5.74813e-05
2.58891e-06
3.72993e-06
4.40147e-06
4.75494e-06
4.92721e-06
5.02482e-06
4.97391e-06
4.85913e-06
4.75407e-06
4.67749e-06
4.60417e-06
4.52756e-06
4.52579e-06
4.52329e-06
4.47902e-06
4.47859e-06
4.39846e-06
4.13424e-06
3.54491e-06
2.42002e-06
4.03227e-06
7.97039e-06
9.40399e-06
9.63226e-06
9.892e-06
1.02426e-05
9.90375e-06
9.7742e-06
1.01671e-05
1.05545e-05
1.03539e-05
9.84707e-06
9.66785e-06
9.96955e-06
1.01306e-05
9.97691e-06
9.99056e-06
9.61811e-06
8.06803e-06
4.13051e-06
5.38982e-06
1.22515e-05
1.44049e-05
1.38387e-05
1.33055e-05
1.3567e-05
1.24161e-05
1.17279e-05
1.19944e-05
1.21979e-05
1.19359e-05
1.1671e-05
1.19289e-05
1.29913e-05
1.34593e-05
1.37103e-05
1.51803e-05
1.54245e-05
1.30524e-05
5.62588e-06
1.52778e-05
1.91154e-05
1.98385e-05
2.02125e-05
2.00887e-05
1.97183e-05
1.73359e-05
1.46552e-05
1.38232e-05
1.3352e-05
1.30814e-05
1.34216e-05
1.48299e-05
1.74805e-05
1.95525e-05
2.08194e-05
2.09639e-05
2.06149e-05
1.97645e-05
1.53687e-05
2.3257e-05
2.63053e-05
2.56018e-05
2.33815e-05
2.11873e-05
2.01609e-05
1.99867e-05
1.90045e-05
1.72638e-05
1.52927e-05
1.4946e-05
1.62778e-05
1.76342e-05
1.85938e-05
1.94792e-05
2.1151e-05
2.32521e-05
2.52894e-05
2.61124e-05
2.3136e-05
2.99646e-05
3.22748e-05
3.06821e-05
2.77738e-05
2.44555e-05
2.16336e-05
1.94959e-05
1.78726e-05
1.70726e-05
1.67294e-05
1.6198e-05
1.65623e-05
1.77031e-05
1.93433e-05
2.14591e-05
2.42193e-05
2.74493e-05
3.05805e-05
3.23167e-05
2.99091e-05
3.80277e-05
4.01069e-05
3.81226e-05
3.48814e-05
3.14703e-05
2.83128e-05
2.54714e-05
2.32383e-05
2.17348e-05
2.10019e-05
2.06587e-05
2.12664e-05
2.28828e-05
2.52e-05
2.79544e-05
3.09817e-05
3.44074e-05
3.80658e-05
4.02834e-05
3.80418e-05
4.59889e-05
4.96872e-05
5.14991e-05
5.10877e-05
4.92027e-05
4.78776e-05
4.68209e-05
4.60669e-05
4.382e-05
3.92942e-05
3.79113e-05
4.17813e-05
4.45588e-05
4.61387e-05
4.76437e-05
4.93614e-05
5.10079e-05
5.17458e-05
5.0173e-05
4.61664e-05
5.41943e-05
6.43035e-05
8.2874e-05
0.000105618
0.000124615
0.000136381
0.000145598
0.00015018
0.000142848
0.000122796
0.000119007
0.000135357
0.000142765
0.000140652
0.000134183
0.000124016
0.000107309
8.41875e-05
6.5097e-05
5.45487e-05
6.39243e-05
7.80854e-05
9.18142e-05
0.00010483
0.000117338
0.000129121
0.000139648
0.000147715
0.000151502
0.000149412
0.000147093
0.00014911
0.000145419
0.000137676
0.000127607
0.000116311
0.00010433
9.17167e-05
7.82771e-05
6.42983e-05
2.58242e-06
3.88059e-06
4.54249e-06
4.92721e-06
5.20106e-06
5.35385e-06
5.39096e-06
5.4044e-06
5.44309e-06
5.49867e-06
5.44122e-06
5.22427e-06
5.06949e-06
4.9439e-06
4.7957e-06
4.64699e-06
4.4999e-06
4.19573e-06
3.59447e-06
2.38782e-06
3.76651e-06
7.76547e-06
9.16267e-06
9.89201e-06
1.05754e-05
1.07129e-05
1.05071e-05
1.07728e-05
1.1584e-05
1.23835e-05
1.21748e-05
1.12613e-05
1.07059e-05
1.06759e-05
1.08513e-05
1.058e-05
1.01293e-05
9.50965e-06
8.04713e-06
3.8751e-06
5.38737e-06
1.07932e-05
1.25033e-05
1.33055e-05
1.41024e-05
1.39102e-05
1.28914e-05
1.28065e-05
1.34344e-05
1.39934e-05
1.36367e-05
1.30307e-05
1.29169e-05
1.35217e-05
1.43226e-05
1.40336e-05
1.35897e-05
1.32764e-05
1.14178e-05
5.5558e-06
1.1613e-05
1.66452e-05
1.89767e-05
2.00887e-05
2.03284e-05
1.93957e-05
1.69986e-05
1.54256e-05
1.50014e-05
1.50492e-05
1.46567e-05
1.45261e-05
1.54168e-05
1.74261e-05
1.96304e-05
2.08133e-05
2.09946e-05
1.99555e-05
1.76261e-05
1.20939e-05
1.92511e-05
2.12421e-05
2.16595e-05
2.11873e-05
2.07958e-05
2.10418e-05
2.10291e-05
1.9794e-05
1.80989e-05
1.72721e-05
1.67547e-05
1.71782e-05
1.86721e-05
1.97594e-05
2.01742e-05
2.062e-05
2.13541e-05
2.18528e-05
2.1404e-05
1.91617e-05
2.83938e-05
2.95668e-05
2.68941e-05
2.44555e-05
2.21958e-05
2.03837e-05
1.90735e-05
1.83344e-05
1.84889e-05
1.96141e-05
1.89909e-05
1.77675e-05
1.80875e-05
1.90407e-05
2.04517e-05
2.23159e-05
2.45274e-05
2.68885e-05
2.94497e-05
2.84126e-05
3.87539e-05
4.0434e-05
3.56368e-05
3.14703e-05
2.84496e-05
2.60484e-05
2.41763e-05
2.30281e-05
2.29219e-05
2.42215e-05
2.45579e-05
2.3432e-05
2.35305e-05
2.46974e-05
2.64898e-05
2.87414e-05
3.15892e-05
3.55895e-05
4.073e-05
3.88728e-05
4.8499e-05
5.28959e-05
5.17566e-05
4.92027e-05
4.96975e-05
5.0676e-05
5.18664e-05
5.27542e-05
5.13104e-05
4.72101e-05
4.63796e-05
5.02076e-05
5.21858e-05
5.21908e-05
5.1611e-05
5.0984e-05
5.0469e-05
5.26587e-05
5.38122e-05
4.88364e-05
5.83962e-05
7.02348e-05
9.44543e-05
0.000124615
0.000149429
0.000171059
0.000188111
0.000196318
0.000187065
0.000160362
0.000157166
0.000181116
0.000190319
0.000184225
0.00016936
0.000149826
0.000126917
9.70324e-05
7.16437e-05
5.89563e-05
6.98259e-05
8.6334e-05
0.000102144
0.000117338
0.000132528
0.000147421
0.000161015
0.000171875
0.000178
0.000177769
0.000175332
0.000175723
0.000169806
0.000159312
0.000146198
0.000131831
0.0001171
0.000102285
8.67168e-05
7.03601e-05
2.51292e-06
3.85473e-06
4.55928e-06
5.02482e-06
5.35385e-06
5.575e-06
5.74071e-06
5.92024e-06
6.1582e-06
6.42373e-06
6.38344e-06
5.93427e-06
5.56263e-06
5.27487e-06
5.02408e-06
4.76921e-06
4.49448e-06
4.14747e-06
3.54979e-06
2.32044e-06
3.62275e-06
7.69568e-06
9.28006e-06
1.02427e-05
1.07129e-05
1.07928e-05
1.09725e-05
1.16728e-05
1.29746e-05
1.42928e-05
1.40915e-05
1.26579e-05
1.1591e-05
1.10926e-05
1.09874e-05
1.08243e-05
1.03208e-05
9.47488e-06
7.94257e-06
3.60492e-06
5.37391e-06
9.8147e-06
1.21347e-05
1.3567e-05
1.39102e-05
1.33849e-05
1.30974e-05
1.35211e-05
1.45647e-05
1.54178e-05
1.49189e-05
1.40374e-05
1.35599e-05
1.35925e-05
1.40633e-05
1.42748e-05
1.35145e-05
1.21124e-05
9.91224e-06
5.41743e-06
7.54202e-06
1.49522e-05
1.83443e-05
1.97184e-05
1.93957e-05
1.7893e-05
1.63205e-05
1.56249e-05
1.58706e-05
1.65374e-05
1.58771e-05
1.52046e-05
1.5543e-05
1.669e-05
1.84538e-05
1.98375e-05
2.00314e-05
1.87391e-05
1.55106e-05
8.23991e-06
1.63734e-05
1.78409e-05
1.92028e-05
2.01609e-05
2.10418e-05
2.15679e-05
2.10644e-05
1.95563e-05
1.84587e-05
1.88935e-05
1.80994e-05
1.75911e-05
1.88351e-05
2.01932e-05
2.07905e-05
2.05948e-05
2.00848e-05
1.93422e-05
1.80374e-05
1.63604e-05
2.69776e-05
2.56399e-05
2.32486e-05
2.16336e-05
2.03837e-05
1.94486e-05
1.88941e-05
1.89396e-05
1.9925e-05
2.24626e-05
2.17405e-05
1.90076e-05
1.85169e-05
1.88512e-05
1.96304e-05
2.0684e-05
2.19639e-05
2.35379e-05
2.58344e-05
2.72313e-05
3.92192e-05
3.93647e-05
3.21232e-05
2.83128e-05
2.60484e-05
2.45186e-05
2.3599e-05
2.35836e-05
2.51076e-05
2.94376e-05
3.04374e-05
2.63997e-05
2.47003e-05
2.46923e-05
2.5552e-05
2.69523e-05
2.90371e-05
3.26791e-05
3.98753e-05
3.95253e-05
5.04191e-05
5.5416e-05
4.93856e-05
4.78776e-05
5.0676e-05
5.42329e-05
5.78829e-05
6.01444e-05
5.83145e-05
5.39861e-05
5.40839e-05
5.84508e-05
6.04758e-05
5.90055e-05
5.61024e-05
5.29194e-05
5.00493e-05
5.08581e-05
5.66606e-05
5.0972e-05
6.18215e-05
7.54046e-05
0.000104673
0.000136381
0.000171059
0.000202394
0.000227487
0.000237851
0.000218274
0.000175273
0.000174782
0.000216082
0.000232919
0.000223454
0.000201037
0.000172325
0.000139762
0.000108211
7.73571e-05
6.26341e-05
7.48419e-05
9.36885e-05
0.000111627
0.000129121
0.000147421
0.000165633
0.000182651
0.000196838
0.000206079
0.000209004
0.000206191
0.000203945
0.000195091
0.000181309
0.000164804
0.000147133
0.000129282
0.000112101
9.43462e-05
7.55997e-05
2.45314e-06
3.70838e-06
4.44818e-06
4.97392e-06
5.39096e-06
5.74071e-06
6.07402e-06
6.47155e-06
6.99372e-06
7.68818e-06
7.67254e-06
6.74365e-06
6.05695e-06
5.55804e-06
5.17651e-06
4.83767e-06
4.48815e-06
4.05611e-06
3.40273e-06
2.22209e-06
3.62213e-06
7.41138e-06
8.99176e-06
9.90377e-06
1.05071e-05
1.09726e-05
1.1615e-05
1.28571e-05
1.49407e-05
1.79317e-05
1.77827e-05
1.46309e-05
1.26897e-05
1.15524e-05
1.09344e-05
1.04674e-05
9.93548e-06
9.10973e-06
7.59974e-06
3.5023e-06
5.31413e-06
9.45022e-06
1.14227e-05
1.24161e-05
1.28914e-05
1.30974e-05
1.34542e-05
1.43368e-05
1.60472e-05
1.83753e-05
1.75767e-05
1.5393e-05
1.43065e-05
1.37651e-05
1.34897e-05
1.32629e-05
1.27621e-05
1.17313e-05
9.76016e-06
5.37349e-06
6.37727e-06
1.36427e-05
1.66592e-05
1.73359e-05
1.69986e-05
1.63205e-05
1.58134e-05
1.58409e-05
1.71953e-05
2.03013e-05
1.88669e-05
1.6257e-05
1.5744e-05
1.6037e-05
1.66878e-05
1.7448e-05
1.78592e-05
1.71607e-05
1.41232e-05
6.46258e-06
1.35877e-05
1.59193e-05
1.82026e-05
1.99867e-05
2.10291e-05
2.10644e-05
2.00838e-05
1.89198e-05
1.93492e-05
2.36861e-05
2.17721e-05
1.8249e-05
1.85173e-05
1.97456e-05
2.06774e-05
2.07034e-05
1.98412e-05
1.83089e-05
1.62877e-05
1.41803e-05
2.56475e-05
2.22837e-05
2.03146e-05
1.94959e-05
1.90735e-05
1.88941e-05
1.9019e-05
1.95454e-05
2.16266e-05
2.84774e-05
2.66608e-05
2.04555e-05
1.90255e-05
1.89e-05
1.90835e-05
1.94516e-05
1.99537e-05
2.08008e-05
2.27862e-05
2.60629e-05
3.9219e-05
3.56361e-05
2.83859e-05
2.54714e-05
2.41763e-05
2.3599e-05
2.36624e-05
2.48484e-05
2.84779e-05
3.84435e-05
3.9392e-05
3.00497e-05
2.62922e-05
2.50909e-05
2.49861e-05
2.54537e-05
2.65999e-05
2.94092e-05
3.65713e-05
3.97528e-05
5.15608e-05
5.61739e-05
4.62673e-05
4.68209e-05
5.18665e-05
5.78829e-05
6.33084e-05
6.53567e-05
6.15468e-05
5.98999e-05
6.04993e-05
6.29811e-05
6.68279e-05
6.51326e-05
6.03075e-05
5.4612e-05
4.9435e-05
4.83366e-05
5.77089e-05
5.23683e-05
6.42363e-05
7.8837e-05
0.000111662
0.000145598
0.000188111
0.000227487
0.000257307
0.000261648
0.000219523
0.000175172
0.000174596
0.000223798
0.00026264
0.000255967
0.000227381
0.000190127
0.000149407
0.000115446
8.11869e-05
6.53358e-05
7.87739e-05
9.977e-05
0.000119756
0.000139648
0.000161015
0.000182651
0.000203403
0.000221741
0.000236321
0.00024738
0.000243338
0.000234066
0.000220478
0.000202685
0.000182435
0.000161292
0.000140323
0.000120672
0.000100802
7.98287e-05
2.37609e-06
3.48735e-06
4.24699e-06
4.85914e-06
5.4044e-06
5.92024e-06
6.47155e-06
7.19674e-06
8.1378e-06
9.35082e-06
9.26341e-06
7.80968e-06
6.67709e-06
5.8688e-06
5.30899e-06
4.84391e-06
4.39009e-06
3.87408e-06
3.19384e-06
2.13105e-06
3.54809e-06
6.80208e-06
8.53109e-06
9.77422e-06
1.07728e-05
1.16728e-05
1.28571e-05
1.50685e-05
1.82091e-05
2.05843e-05
2.02115e-05
1.79024e-05
1.47146e-05
1.25142e-05
1.13169e-05
1.04095e-05
9.48337e-06
8.36946e-06
6.81205e-06
3.39339e-06
5.20632e-06
8.59495e-06
1.03784e-05
1.17279e-05
1.28065e-05
1.35211e-05
1.43368e-05
1.61118e-05
1.9018e-05
2.66497e-05
2.50222e-05
1.81518e-05
1.5853e-05
1.44463e-05
1.36741e-05
1.291e-05
1.18226e-05
1.05145e-05
8.78473e-06
5.27353e-06
6.59759e-06
1.0895e-05
1.3191e-05
1.46552e-05
1.54256e-05
1.56249e-05
1.58408e-05
1.72229e-05
2.17963e-05
4.21202e-05
3.80724e-05
2.02276e-05
1.69433e-05
1.60189e-05
1.5852e-05
1.56417e-05
1.48757e-05
1.34783e-05
1.11604e-05
6.83823e-06
1.04334e-05
1.37295e-05
1.68566e-05
1.90045e-05
1.9794e-05
1.95563e-05
1.89198e-05
1.93497e-05
2.60247e-05
6.39296e-05
5.65657e-05
2.36408e-05
1.89122e-05
1.88932e-05
1.95385e-05
1.97304e-05
1.89673e-05
1.7034e-05
1.42095e-05
1.12859e-05
2.44644e-05
1.96387e-05
1.795e-05
1.78726e-05
1.83344e-05
1.89395e-05
1.95454e-05
2.09076e-05
2.97754e-05
8.24596e-05
7.24516e-05
2.70484e-05
2.02976e-05
1.94095e-05
1.90492e-05
1.86548e-05
1.83388e-05
1.84795e-05
2.02027e-05
2.4983e-05
3.8735e-05
3.18671e-05
2.52171e-05
2.32383e-05
2.30281e-05
2.35836e-05
2.48484e-05
2.79337e-05
3.9531e-05
9.63366e-05
9.17838e-05
4.01486e-05
2.94653e-05
2.64398e-05
2.5145e-05
2.44682e-05
2.45247e-05
2.64264e-05
3.31202e-05
3.95143e-05
5.17583e-05
5.48306e-05
4.41473e-05
4.60669e-05
5.27543e-05
6.01444e-05
6.53568e-05
6.51215e-05
6.50257e-05
0.000104372
0.000101335
6.65382e-05
6.78335e-05
6.81508e-05
6.30877e-05
5.57501e-05
4.87751e-05
4.62987e-05
5.65905e-05
5.28412e-05
6.53395e-05
7.97032e-05
0.000113229
0.000150181
0.000196318
0.000237851
0.000261648
0.000241798
0.000201676
0.000231252
0.000227422
0.000204687
0.000249819
0.000266483
0.000240939
0.000199842
0.000154504
0.000117506
8.2387e-05
6.67499e-05
8.12713e-05
0.000103973
0.000125669
0.000147715
0.000171875
0.000196838
0.000221741
0.000246214
0.00027257
0.000303324
0.000296963
0.000269295
0.000245133
0.000221735
0.000197422
0.000172899
0.000149048
0.000127152
0.000105474
8.26874e-05
2.30321e-06
3.29526e-06
4.06204e-06
4.75408e-06
5.44309e-06
6.1582e-06
6.99372e-06
8.1378e-06
9.24251e-06
1.05494e-05
1.0224e-05
8.70828e-06
7.45585e-06
6.27568e-06
5.49122e-06
4.87595e-06
4.31147e-06
3.73039e-06
3.03985e-06
2.06339e-06
3.54791e-06
6.63238e-06
8.60925e-06
1.01672e-05
1.1584e-05
1.29746e-05
1.49407e-05
1.82091e-05
2.03362e-05
5.1777e-05
5.12798e-05
1.96348e-05
1.74722e-05
1.41172e-05
1.2205e-05
1.08744e-05
9.58434e-06
8.19934e-06
6.50156e-06
3.38748e-06
5.29675e-06
8.65434e-06
1.04953e-05
1.19944e-05
1.34344e-05
1.45647e-05
1.60471e-05
1.9018e-05
2.96005e-05
0.000134587
0.000133116
2.88449e-05
1.83743e-05
1.57449e-05
1.43928e-05
1.33089e-05
1.18902e-05
1.04243e-05
8.67238e-06
5.33048e-06
6.81713e-06
1.01635e-05
1.23362e-05
1.38232e-05
1.50014e-05
1.58706e-05
1.71952e-05
2.17962e-05
5.03136e-05
0.000240423
0.000236094
4.94911e-05
2.12753e-05
1.71888e-05
1.59903e-05
1.51572e-05
1.39564e-05
1.241e-05
1.02168e-05
7.00991e-06
9.08223e-06
1.21712e-05
1.56467e-05
1.72638e-05
1.80989e-05
1.84587e-05
1.93491e-05
2.60246e-05
8.34543e-05
0.000363202
0.00035593
8.10554e-05
2.52477e-05
1.92506e-05
1.84695e-05
1.80983e-05
1.72778e-05
1.56276e-05
1.22831e-05
9.83234e-06
2.34725e-05
1.82904e-05
1.65473e-05
1.70726e-05
1.84889e-05
1.99249e-05
2.16266e-05
2.97753e-05
0.000110892
0.000462714
0.000450377
0.000105764
2.88066e-05
2.15238e-05
1.99592e-05
1.86242e-05
1.73354e-05
1.68894e-05
1.87402e-05
2.41032e-05
3.76774e-05
2.88272e-05
2.27956e-05
2.17348e-05
2.2922e-05
2.51076e-05
2.84779e-05
3.95309e-05
0.000128666
0.000506063
0.00049341
0.00012514
4.07338e-05
3.01315e-05
2.67482e-05
2.44077e-05
2.30341e-05
2.40306e-05
3.02707e-05
3.8702e-05
5.07762e-05
5.14587e-05
4.1153e-05
4.382e-05
5.13105e-05
5.83146e-05
6.15468e-05
6.50257e-05
0.000132608
0.000470963
0.000456972
0.000130828
6.77823e-05
6.51956e-05
6.19613e-05
5.46862e-05
4.67071e-05
4.3444e-05
5.33996e-05
5.2132e-05
6.46414e-05
7.66533e-05
0.00010751
0.000142848
0.000187065
0.000218274
0.000219523
0.000201676
0.000247374
0.000418831
0.000408323
0.000246206
0.000205803
0.000228548
0.0002255
0.000193184
0.000148579
0.000112882
7.96836e-05
6.63656e-05
8.17268e-05
0.000105342
0.000128043
0.000151502
0.000178
0.000206079
0.000236321
0.00027257
0.000321193
0.000379764
0.000369814
0.000316758
0.000271056
0.000236734
0.000207441
0.00017987
0.000153628
0.00013021
0.000107387
8.35483e-05
2.23804e-06
3.15167e-06
3.92211e-06
4.6775e-06
5.49868e-06
6.42373e-06
7.68818e-06
9.35082e-06
1.05494e-05
1.09671e-05
1.02291e-05
9.54577e-06
8.45796e-06
6.85387e-06
5.72238e-06
4.95307e-06
4.2869e-06
3.65372e-06
2.95881e-06
2.02566e-06
3.58838e-06
6.65836e-06
8.76967e-06
1.05545e-05
1.23835e-05
1.42928e-05
1.79317e-05
2.05843e-05
5.1777e-05
4.85203e-05
4.60276e-05
4.90346e-05
1.91822e-05
1.65659e-05
1.3175e-05
1.14588e-05
9.86793e-06
8.3446e-06
6.55793e-06
3.47214e-06
5.46116e-06
8.93393e-06
1.06281e-05
1.2198e-05
1.39934e-05
1.54178e-05
1.83753e-05
2.66497e-05
0.000134586
9.38195e-05
9.00915e-05
0.000136221
2.63647e-05
1.76074e-05
1.49913e-05
1.36817e-05
1.20165e-05
1.05436e-05
8.94946e-06
5.53211e-06
7.14868e-06
1.04392e-05
1.19015e-05
1.3352e-05
1.50492e-05
1.65374e-05
2.03013e-05
4.21202e-05
0.000240423
0.000152471
0.000147118
0.000249606
4.4232e-05
2.02345e-05
1.66036e-05
1.51048e-05
1.34247e-05
1.1967e-05
1.0482e-05
7.37027e-06
9.38948e-06
1.24951e-05
1.396e-05
1.52928e-05
1.72722e-05
1.88935e-05
2.36862e-05
6.39296e-05
0.000363202
0.000224902
0.000217136
0.000378908
6.77134e-05
2.37743e-05
1.88766e-05
1.72144e-05
1.52676e-05
1.39157e-05
1.24775e-05
1.00791e-05
2.23972e-05
1.75316e-05
1.54885e-05
1.67295e-05
1.96141e-05
2.24626e-05
2.84774e-05
8.24595e-05
0.000462714
0.000305674
0.000294794
0.000479333
8.57388e-05
2.88042e-05
2.26665e-05
1.97256e-05
1.68886e-05
1.55985e-05
1.77325e-05
2.30754e-05
3.60058e-05
2.64733e-05
2.11318e-05
2.10019e-05
2.42215e-05
2.94376e-05
3.84435e-05
9.63365e-05
0.000506063
0.000381685
0.000367782
0.000521137
9.98892e-05
4.02934e-05
3.10463e-05
2.55442e-05
2.21066e-05
2.22932e-05
2.79467e-05
3.70984e-05
4.85648e-05
4.64707e-05
3.67012e-05
3.92942e-05
4.72102e-05
5.39861e-05
5.98999e-05
0.000104372
0.000470962
0.000429636
0.000413063
0.000483284
0.000108666
6.37338e-05
5.79895e-05
5.08915e-05
4.2315e-05
3.90746e-05
4.81014e-05
5.0018e-05
6.18678e-05
6.86016e-05
9.20423e-05
0.000122796
0.000160362
0.000175273
0.000175172
0.000231252
0.000418831
0.000449301
0.000431421
0.000424738
0.000235546
0.000180294
0.00018289
0.000168391
0.000129911
9.86255e-05
7.14067e-05
6.37323e-05
7.93924e-05
0.000102958
0.000125525
0.000149412
0.00017777
0.000209004
0.00024738
0.000303324
0.000379764
0.0004159
0.000401616
0.000376431
0.000302657
0.000248153
0.000210963
0.000180435
0.000152329
0.000128391
0.000105516
8.15724e-05
2.19339e-06
3.07247e-06
3.83873e-06
4.60419e-06
5.44124e-06
6.38347e-06
7.67256e-06
9.26344e-06
1.0224e-05
1.02291e-05
9.19107e-06
8.89741e-06
8.11042e-06
6.66588e-06
5.58982e-06
4.84814e-06
4.20059e-06
3.58546e-06
2.90703e-06
1.99986e-06
3.55313e-06
6.51821e-06
8.59002e-06
1.0354e-05
1.21748e-05
1.40916e-05
1.77828e-05
2.02115e-05
5.12801e-05
4.60277e-05
4.24614e-05
4.64908e-05
1.82995e-05
1.61125e-05
1.28583e-05
1.12303e-05
9.72176e-06
8.27265e-06
6.54263e-06
3.48256e-06
5.38421e-06
8.73089e-06
1.04106e-05
1.1936e-05
1.36368e-05
1.4919e-05
1.75768e-05
2.50224e-05
0.000133117
9.00915e-05
8.58435e-05
0.000131821
2.46973e-05
1.69389e-05
1.46038e-05
1.34208e-05
1.18409e-05
1.04062e-05
8.83373e-06
5.46828e-06
6.92735e-06
1.0096e-05
1.16431e-05
1.30814e-05
1.46568e-05
1.58772e-05
1.8867e-05
3.80726e-05
0.000236095
0.000147118
0.000142939
0.000241167
4.02057e-05
1.90942e-05
1.6134e-05
1.48319e-05
1.32189e-05
1.17628e-05
1.02087e-05
7.15184e-06
8.81472e-06
1.19093e-05
1.35633e-05
1.4946e-05
1.67548e-05
1.80995e-05
2.17722e-05
5.65662e-05
0.000355932
0.000217136
0.000213243
0.00036593
6.06973e-05
2.23032e-05
1.83019e-05
1.675e-05
1.48805e-05
1.35217e-05
1.20341e-05
9.64475e-06
2.13776e-05
1.68344e-05
1.4971e-05
1.6198e-05
1.89909e-05
2.17406e-05
2.6661e-05
7.24524e-05
0.00045038
0.000294793
0.000291056
0.000463347
7.80723e-05
2.79418e-05
2.24584e-05
1.93726e-05
1.64068e-05
1.49737e-05
1.69576e-05
2.21834e-05
3.48651e-05
2.50948e-05
2.03197e-05
2.06587e-05
2.45579e-05
3.04375e-05
3.93922e-05
9.17846e-05
0.000493414
0.000367782
0.000363849
0.000508206
9.91275e-05
4.21474e-05
3.24012e-05
2.60002e-05
2.17791e-05
2.15137e-05
2.65449e-05
3.6106e-05
4.73693e-05
4.46132e-05
3.52343e-05
3.79113e-05
4.63796e-05
5.40839e-05
6.04994e-05
0.000101336
0.000456976
0.000413063
0.00040772
0.00047224
0.000108707
6.4821e-05
5.82624e-05
5.02335e-05
4.09677e-05
3.75713e-05
4.63963e-05
4.89345e-05
6.05031e-05
6.60894e-05
8.77444e-05
0.000119007
0.000157166
0.000174783
0.000174596
0.000227423
0.000408326
0.00043142
0.000423917
0.000416419
0.000233522
0.000178663
0.000180301
0.000164765
0.000125748
9.42219e-05
6.87195e-05
6.24733e-05
7.7872e-05
0.000101043
0.000123262
0.000147093
0.000175332
0.000206191
0.000243339
0.000296964
0.000369815
0.000401616
0.000393969
0.000369744
0.000298546
0.000245292
0.000208631
0.000178312
0.000150263
0.000126393
0.00010382
8.02306e-05
2.17666e-06
3.07712e-06
3.82675e-06
4.52758e-06
5.22429e-06
5.93429e-06
6.74367e-06
7.8097e-06
8.7083e-06
9.54577e-06
8.8974e-06
7.83438e-06
6.82419e-06
5.83701e-06
5.16385e-06
4.61568e-06
4.09651e-06
3.55545e-06
2.90773e-06
1.99539e-06
3.48541e-06
6.39774e-06
8.30545e-06
9.84711e-06
1.12613e-05
1.2658e-05
1.46309e-05
1.79025e-05
1.96349e-05
4.90347e-05
4.64909e-05
1.81297e-05
1.63527e-05
1.34253e-05
1.17271e-05
1.05332e-05
9.3653e-06
8.10929e-06
6.50743e-06
3.40303e-06
5.23262e-06
8.43621e-06
1.02029e-05
1.1671e-05
1.30308e-05
1.40375e-05
1.53931e-05
1.81519e-05
2.8845e-05
0.000136222
0.000131822
2.8068e-05
1.74674e-05
1.50874e-05
1.38953e-05
1.29495e-05
1.1668e-05
1.02954e-05
8.65011e-06
5.3374e-06
6.60017e-06
9.76319e-06
1.1867e-05
1.34217e-05
1.45261e-05
1.52047e-05
1.62571e-05
2.02277e-05
4.94914e-05
0.000249607
0.000241167
4.9006e-05
2.0028e-05
1.63669e-05
1.53731e-05
1.46833e-05
1.3569e-05
1.2056e-05
9.98997e-06
6.89743e-06
8.68793e-06
1.16527e-05
1.45426e-05
1.62778e-05
1.71782e-05
1.75912e-05
1.82491e-05
2.3641e-05
8.10561e-05
0.000378909
0.00036593
7.92235e-05
2.34772e-05
1.82053e-05
1.74887e-05
1.70291e-05
1.61781e-05
1.46845e-05
1.19535e-05
9.57077e-06
2.19703e-05
1.72189e-05
1.59792e-05
1.65623e-05
1.77675e-05
1.90077e-05
2.04556e-05
2.70486e-05
0.000105765
0.000479335
0.000463348
0.000104699
2.76717e-05
2.10506e-05
1.95484e-05
1.81731e-05
1.67901e-05
1.61918e-05
1.77069e-05
2.28718e-05
3.6159e-05
2.62812e-05
2.14229e-05
2.12664e-05
2.3432e-05
2.63997e-05
3.00498e-05
4.01488e-05
0.000125141
0.00052114
0.000508207
0.000127104
4.30659e-05
3.25107e-05
2.85236e-05
2.52455e-05
2.28889e-05
2.28717e-05
2.80006e-05
3.74314e-05
4.93898e-05
4.87746e-05
3.88117e-05
4.17814e-05
5.02076e-05
5.84508e-05
6.29811e-05
6.65383e-05
0.000130829
0.000483287
0.000472242
0.000133585
7.02663e-05
6.72071e-05
6.32092e-05
5.47025e-05
4.54933e-05
4.15398e-05
5.06701e-05
5.09313e-05
6.32741e-05
7.3697e-05
0.000100638
0.000135358
0.000181116
0.000216082
0.000223798
0.000204687
0.000246207
0.00042474
0.00041642
0.000248469
0.000206071
0.000226158
0.000222615
0.000189252
0.000143385
0.00010789
7.66755e-05
6.51851e-05
8.05252e-05
0.000103641
0.000125899
0.000149111
0.000175723
0.000203945
0.000234066
0.000269296
0.000316759
0.000376432
0.000369745
0.000314957
0.000269148
0.000234845
0.000205683
0.000178172
0.00015192
0.000128684
0.000106155
8.26752e-05
2.20659e-06
3.17661e-06
3.91068e-06
4.52581e-06
5.06951e-06
5.56265e-06
6.05697e-06
6.67711e-06
7.45585e-06
8.45796e-06
8.11041e-06
6.82418e-06
5.90634e-06
5.28448e-06
4.84659e-06
4.45912e-06
4.0656e-06
3.6136e-06
3.00016e-06
2.02457e-06
3.50317e-06
6.64656e-06
8.38539e-06
9.66789e-06
1.0706e-05
1.15911e-05
1.26897e-05
1.47147e-05
1.74722e-05
1.91822e-05
1.82995e-05
1.63527e-05
1.36728e-05
1.18974e-05
1.09329e-05
1.01692e-05
9.35084e-06
8.33929e-06
6.84664e-06
3.38807e-06
5.27896e-06
8.77115e-06
1.06288e-05
1.19289e-05
1.29169e-05
1.35599e-05
1.43066e-05
1.5853e-05
1.83743e-05
2.63648e-05
2.46973e-05