/*--------------------------------*- C++ -*----------------------------------*\
| =========                 |                                                 |
| \\      /  F ield         | OpenFOAM: The Open Source CFD Toolbox           |
|  \\    /   O peration     | Version:  1.7.1                                 |
|   \\  /    A nd           | Web:      www.OpenFOAM.com                      |
|    \\/     M anipulation  |                                                 |
\*---------------------------------------------------------------------------*/
FoamFile
{
    version     2.0;
    format      ascii;
    class       surfaceScalarField;
    location    "1800";
    object      phi;
}
// * * * * * * * * * * * * * * * * * * * * * * * * * * * * * * * * * * * * * //

dimensions      [1 0 -1 0 0 0 0];

internalField   nonuniform List<scalar> 
11200
(
-4.8055e-05
9.6077e-05
-4.80531e-05
-0.000144519
4.79122e-05
4.85233e-05
-0.000277815
3.03501e-05
0.000102917
-0.000203041
-0.000209003
0.000134226
-3.8239e-05
-0.000356348
0.000191561
7.38363e-05
-0.0003544
0.000242342
0.00014927
-0.000360695
0.00028528
0.000208429
-0.000375789
0.000316653
0.000242363
-0.00037329
0.000339381
0.000255972
-0.000357573
0.00034399
0.000281364
-0.000348489
0.000323121
0.000307597
-0.000309815
0.0002836
0.000306888
-0.00024384
0.000244558
0.000276105
-0.000180071
0.000210854
0.000290576
-0.000192269
0.000177797
0.000255684
-0.000118293
0.000153173
8.78141e-05
3.37248e-06
0.000164471
-7.31602e-05
-1.63583e-05
0.000177308
-7.19518e-05
-0.000193089
0.000191873
-0.000177891
0.000105929
-0.000323131
0.000742332
-0.000323138
-0.000741394
0.000654551
-0.000188389
-0.000842197
0.00025435
-0.000123211
-0.000583708
-0.000373382
-9.41037e-05
-0.000486231
-0.000399677
-5.4134e-05
-0.000443013
-0.000417233
1.96329e-05
-0.000279879
-0.000535051
1.12469e-05
-0.000100854
-0.000560383
5.59379e-06
5.45019e-05
-0.00051309
-1.55336e-05
0.000189588
-0.000445732
-4.69097e-05
0.000298502
-0.000410876
-4.65113e-05
0.000398427
-0.000384611
-2.51161e-05
0.000509176
-0.000339842
-1.4737e-05
0.000607639
-0.000265412
-1.31158e-05
0.000705483
-0.000232903
-5.72077e-05
0.000962154
-0.000229258
-0.000145707
0.001197
-6.71727e-05
-0.000164315
0.000934978
0.000535153
-0.000289495
0.000420801
0.000756313
-0.00043523
0.000891817
-0.000648909
0.00111985
-0.00149739
0.00111985
0.00101051
-0.00017007
0.000933945
6.37701e-05
0.000468694
0.000732388
-0.000978834
0.000477117
0.000192107
-0.00151854
0.000254035
-0.000113999
-0.00142193
-0.000410385
-0.000103455
-0.000972398
-0.000774249
-0.000210316
-0.000633666
-0.000624288
-0.000274812
-0.000287622
-0.000509687
-0.000349436
0.000131117
-0.000444099
-0.000420363
0.000517612
-0.000414267
-0.000383096
0.000843577
-0.00042733
-0.00028324
0.00126001
-0.000547702
-0.00020857
0.00171015
-0.00061025
-0.000105287
0.001521
0.000127959
-0.000171719
0.00091083
0.000522775
-0.000141859
-0.000140287
0.000735136
0.000248803
-0.00099719
0.000848792
0.000543228
-0.00110672
0.00018273
0.000683062
-0.00111126
0.000896291
0.00174881
-0.00499502
0.00174881
0.00280834
-0.00297305
0.00174345
0.00299883
-0.00124832
0.00152651
0.00232076
-4.80906e-05
0.00120328
0.00105692
0.000583265
0.000934618
-0.000185513
0.000260096
0.000571961
-0.000793127
-8.93491e-05
-7.7279e-05
-0.000822519
-0.000210944
-0.000383945
-0.000461034
-0.000268295
-0.000602871
0.000160995
-0.000269945
-0.000796179
0.000702287
-0.000242455
-0.000713101
0.000954764
-0.000219241
-0.000460563
0.000757939
-8.82585e-05
-0.000262614
-0.000132559
6.37069e-05
0.000216541
-0.00142001
0.000753495
0.000661907
-0.00243859
0.000712
0.000829329
-0.00303334
0.000180165
0.00114969
-0.00276321
-0.00088785
0.00146649
-0.00175694
-0.00252419
0.00170064
-0.0046195
0.00175129
0.00101713
-0.00702928
0.00101713
0.00172581
-0.00501666
0.00133493
0.00218382
-0.00320255
0.00149622
0.00241241
-0.0018059
0.00152922
0.00251356
-0.000961962
0.00144407
0.00206696
-0.000597518
0.00130422
0.00120285
-0.000321483
0.00109625
0.000425859
-0.00018638
0.00075243
0.000124574
-0.000242971
0.000275962
0.000274813
-0.00030049
-0.000119692
0.000259308
-0.00018706
-3.98933e-05
-0.000284931
-6.76125e-05
0.000392605
-0.00127907
5.93773e-05
0.000846498
-0.00218928
-0.000109199
0.0010831
-0.00240658
-0.000295488
0.00126628
-0.00246148
-0.000643104
0.00140999
-0.0023125
-0.00149575
0.00152692
-0.00184489
-0.00288934
0.00153387
-0.00106587
-0.00468403
0.00138082
-0.00675508
0.0010697
0.000445276
-0.00791984
0.000445274
0.000457297
-0.00605079
0.0010221
0.000305783
-0.00445026
0.00139922
0.000190486
-0.00334922
0.00165861
5.5591e-05
-0.00265662
0.00182954
-0.000106286
-0.0022535
0.00181785
-0.000143078
-0.00197601
0.00169131
-6.02048e-05
-0.00178889
0.00151963
7.79518e-06
-0.00168111
0.00137013
5.58158e-05
-0.00158069
0.00123218
1.4201e-05
-0.00136473
0.00121928
-1.98787e-05
-0.00134733
0.00131379
-4.51132e-06
-0.00145054
0.00149454
-9.478e-05
-0.00169104
0.0016721
-0.000231257
-0.00196633
0.00180731
-0.000333385
-0.00237162
0.00183064
-0.000435721
-0.00307484
0.00168141
-0.000555181
-0.00419505
0.00142516
-0.000483062
-0.00580922
0.00105305
-0.00773752
0.000499363
-3.63344e-05
-0.00784718
-3.63368e-05
-0.000511833
-0.00635104
0.000775743
-0.00100849
-0.005133
0.00117938
-0.00131914
-0.00443652
0.00139794
-0.00143402
-0.00404906
0.0015073
-0.00137465
-0.0038467
0.00153381
-0.00113223
-0.00371491
0.00149647
-0.000765691
-0.00359986
0.00144442
-0.000399778
-0.003485
0.00143797
-0.000127355
-0.003344
0.00149088
0.000112948
-0.00312317
0.00151813
0.000479624
-0.00316398
0.00144996
0.000861823
-0.00329384
0.00146109
0.00110654
-0.00344728
0.00151151
0.00119177
-0.00360501
0.00155344
0.00111775
-0.00382684
0.00152923
0.000856892
-0.00423309
0.00141909
0.000412693
-0.0049501
0.00119924
4.10989e-06
-0.00619549
0.000794837
-0.00773658
3.16193e-06
-0.000472222
-0.00690274
-0.000472227
-0.00135168
-0.00582761
0.000356014
-0.00204045
-0.00511315
0.000668909
-0.00241476
-0.00481558
0.00075336
-0.00246973
-0.00470176
0.000707658
-0.00225252
-0.00468004
0.000616124
-0.00180804
-0.00467233
0.000512923
-0.00121941
-0.00463009
0.000441581
-0.000627187
-0.00453252
0.000455296
-0.000189687
-0.00438216
0.000600653
0.000236089
-0.00422094
0.000671983
0.000856298
-0.00430217
0.000517973
0.00148302
-0.00441068
0.00049012
0.00196081
-0.00447578
0.000550696
0.0022169
-0.00450215
0.000641042
0.00220594
-0.00453982
0.000723921
0.00188268
-0.00467507
0.000765238
0.00125057
-0.0049969
0.000678885
0.000432424
-0.00574156
0.000364207
-0.0068536
-0.000450571
-0.00113386
-0.00463503
-0.00113387
-0.00236226
-0.00404139
-0.000557836
-0.00317689
-0.00381797
-0.000480575
-0.00355752
-0.00387296
-0.000561996
-0.00353836
-0.00400955
-0.000711385
-0.00317986
-0.00417012
-0.000868428
-0.00254323
-0.00431031
-0.000998652
-0.00171539
-0.00439566
-0.00106227
-0.000859229
-0.00439272
-0.00099597
-0.000212365
-0.00430654
-0.000722494
0.000409545
-0.00421575
-0.0006271
0.00130975
-0.00427792
-0.000924464
0.00219226
-0.00429289
-0.00100031
0.00287807
-0.00421652
-0.000945078
0.00328574
-0.00408069
-0.00082914
0.00335373
-0.00392719
-0.000680622
0.00302346
-0.00380199
-0.000542824
0.00226305
-0.0037635
-0.000473002
0.0010899
-0.00401012
-0.000558306
-0.00462868
-0.00113503
-0.00231752
-0.00231753
-0.00387557
-0.00248336
-0.00471347
-0.00298009
-0.00506185
-0.00352459
-0.00498349
-0.00408791
-0.00452396
-0.00462966
-0.00371976
-0.00511452
-0.00261654
-0.00549889
-0.00133908
-0.00567017
-0.0002492
-0.00539643
0.000819781
-0.00528474
0.00217876
-0.00563691
0.0033531
-0.00546723
0.00421591
-0.00507934
0.00472754
-0.00459234
0.00485923
-0.00405888
0.00456744
-0.00351022
0.003788
-0.00298407
0.00228335
-0.00250547
-0.00234534
4.85194e-05
4.79152e-05
-0.000144517
4.84918e-06
8.73111e-05
4.85454e-06
-6.43159e-05
5.35915e-05
0.000118464
-4.17651e-06
-0.000137462
0.000211541
0.000143491
-0.000307383
0.000351292
0.000238988
-0.000309682
0.000456544
0.000284575
-0.000296273
0.000535986
0.000311562
-0.000313362
0.00060305
0.000301026
-0.000303153
0.000653094
0.000255417
-0.000277093
0.000666715
0.000218778
-0.000272702
0.000632483
0.000207679
-0.000263465
0.000558182
0.000188379
-0.00021993
0.000483799
0.000151753
-0.000171761
0.000419246
0.0001603
-0.000185672
0.000354926
0.000114224
-8.54019e-05
0.000284639
-2.6727e-05
3.60435e-05
0.000269356
-0.000136822
2.46816e-05
0.000262699
-0.000107722
-8.36098e-05
0.000246367
-0.00013394
0.000132134
-0.000188385
0.00065455
-0.000741402
-0.000349809
0.000410143
-0.000349815
-0.000369311
8.06791e-05
-0.000130814
-0.000200454
-0.000382285
-1.81362e-05
-0.000141624
-0.000469574
4.92397e-05
-0.00013337
-0.000413769
0.000115481
-3.6187e-05
-0.000494337
0.000112147
6.56159e-05
-0.000503765
9.4214e-05
0.000133041
-0.000440988
5.48942e-05
0.000178314
-0.000382573
1.33121e-05
0.000197536
-0.000354732
1.63082e-05
0.000215376
-0.000353991
4.75819e-05
0.000262505
-0.00035045
6.86647e-05
0.000303644
-0.00029009
6.40797e-05
0.000355344
-0.000298992
4.41698e-06
0.000532431
-0.000301135
-0.000107063
0.000675115
-4.92757e-05
-0.000221695
0.000560506
0.000331099
-0.000481319
0.000294302
0.000547639
-0.000800284
0.00074606
-0.00123461
0.000933949
-0.000170069
0.0010105
0.00101214
0.000253748
0.00101213
0.000540959
0.000499271
0.000784975
-0.000287594
0.000392892
0.000245484
-0.000866315
0.000109324
-0.000114173
-0.000867223
-0.000388202
-0.000128107
-0.000562214
-0.000767104
-0.000242544
-0.000373504
-0.000603645
-0.000363629
-0.000162567
-0.000535982
-0.000465368
9.09283e-05
-0.000513807
-0.000542616
0.000316821
-0.000477243
-0.000486472
0.000497177
-0.000451783
-0.000365798
0.000740741
-0.000550704
-0.000251874
0.0010108
-0.000512941
-0.000152492
0.000778246
1.15699e-05
-0.000249727
0.000154689
0.000365618
-0.000185059
-0.000564697
0.000691603
0.000227303
-0.000996581
0.000825998
0.000480186
-0.000933289
0.000557494
0.000609874
0.000148328
0.000560682
0.00174345
-0.00297305
0.00280834
0.0027538
-0.00176696
0.00275381
0.00299268
-0.000596831
0.00238373
0.00245712
0.000302042
0.00182969
0.00147637
0.000700986
0.00132372
0.000482341
0.000384436
0.000793356
-0.000255264
-0.000114035
7.26352e-06
-0.00045166
-0.000333113
-0.000458075
-0.000267384
-0.000625758
-0.000697367
6.15486e-05
-0.000749403
-0.000889511
0.000357495
-0.000708527
-0.000777759
0.000429419
-0.00046856
-0.000515708
2.387e-05
-0.000203052
-0.000204714
-0.000820416
0.000160979
0.000386906
-0.00173637
0.000733546
0.000855873
-0.00257837
0.000798577
0.00123835
-0.00300243
0.00049635
0.00176898
-0.00270531
-0.000286782
0.00228212
-0.00173678
-0.00136527
0.00265486
-0.00260871
0.00277154
0.00133492
-0.00501666
0.00172581
0.00230248
-0.00370208
0.00230248
0.0029134
-0.0022334
0.00252187
0.00319893
-0.000892001
0.00243773
0.00319317
-4.90289e-05
0.00219986
0.00267832
0.000300157
0.00190335
0.0017626
0.000428915
0.00146901
0.000923229
0.000373506
0.000885186
0.000335836
9.92216e-05
0.000138377
5.64216e-05
-0.000104781
-0.000484898
-0.000278494
-6.39324e-05
-0.000349573
-0.000920691
0.000214011
0.000352227
-0.00180501
0.000479651
0.0010481
-0.00263275
0.000528532
0.00154328
-0.00300844
0.000517225
0.00185829
-0.00317338
0.000243029
0.00213047
-0.00298436
-0.000574629
0.00240887
-0.0023919
-0.00189207
0.00254669
-0.00138918
-0.00335618
0.00236901
-0.00475975
0.00183154
0.0010221
-0.00605079
0.000457295
0.00153984
-0.00473758
0.00153984
0.00171856
-0.00320083
0.00218793
0.00174965
-0.00179173
0.00252723
0.00167366
-0.000783599
0.00264011
0.00142861
-0.000159427
0.00252248
0.00107821
0.000245418
0.00222521
0.000723035
0.00039864
0.00184967
0.000345635
0.000408469
0.00143828
0.000105628
0.000382401
0.000984999
-0.000184895
0.000465833
0.000980029
-0.000624375
0.000562496
0.00140478
-0.00105931
0.000589279
0.00181984
-0.00150256
0.000440527
0.00220335
-0.00176193
8.80864e-05
0.00249581
-0.00182802
-0.000480456
0.00262021
-0.00178689
-0.00147851
0.00254414
-0.00159462
-0.0028877
0.00222851
-0.00104553
-0.00445981
0.00160757
-0.0058713
0.00056538
0.000775745
-0.00635104
-0.000511838
0.000902031
-0.00499016
0.000902027
0.000704011
-0.00358171
0.00175827
0.000477478
-0.00240549
0.00223822
0.000270576
-0.00157615
0.00250675
0.000134982
-0.00102354
0.00253351
9.64629e-05
-0.000616268
0.00239667
7.00226e-05
-0.000362125
0.00223163
2.04432e-05
-0.000206943
0.00210295
-4.01259e-05
-8.26526e-05
0.00201649
-0.000115902
7.80274e-05
0.00198171
-0.000217779
7.92236e-05
0.00203511
-0.000290128
-6.12593e-05
0.00218397
-0.000349589
-0.000353619
0.00236511
-0.000454104
-0.00076543
0.00251146
-0.000605283
-0.00132609
0.00252604
-0.000791775
-0.00214768
0.00227475
-0.000946723
-0.00333821
0.00180469
-0.000789176
-0.00478742
0.000964899
-0.00623819
-0.000419131
0.000356018
-0.00582761
-0.00135169
0.000135221
-0.00454858
0.000135215
-0.000363063
-0.00340283
0.000988307
-0.000701089
-0.00267773
0.00136362
-0.000846987
-0.00219008
0.00146748
-0.000852785
-0.00186258
0.00146096
-0.000724278
-0.00160898
0.00137712
-0.000528893
-0.00139332
0.00127738
-0.0003392
-0.00120792
0.00126657
-0.000187707
-0.00101413
0.00138063
-4.29714e-06
-0.000876588
0.00144318
0.000224383
-0.000981991
0.0013505
0.000461128
-0.00116392
0.00135603
0.000614784
-0.00139654
0.00143995
0.000640067
-0.00167138
0.0015217
0.000539817
-0.00200682
0.00150489
0.000259312
-0.00249722
0.00139527
-0.000186378
-0.00324047
0.00102683
-0.000373925
-0.00441966
0.000183975
-0.00576306
-0.00129964
-0.000557833
-0.00404139
-0.00236227
-0.00127929
-0.00310568
-0.0012793
-0.00190769
-0.00253155
-0.000723471
-0.00226989
-0.00229307
-0.00058446
-0.00231461
-0.00216082
-0.000695938
-0.00208875
-0.00208399
-0.000872892
-0.00165754
-0.0020198
-0.00101905
-0.00110456
-0.00194576
-0.00106282
-0.000554224
-0.00183755
-0.000916684
-0.000201598
-0.00164362
-0.000445634
0.000166839
-0.00156015
-0.000311984
0.000727208
-0.00174502
-0.000721811
0.00132103
-0.00186028
-0.000897787
0.00179222
-0.0019372
-0.000875606
0.00208136
-0.00199597
-0.000793692
0.00209235
-0.0020716
-0.000626844
0.00178546
-0.0022065
-0.000526663
0.00121045
-0.00245338
-0.000685095
0.000531786
-0.00304643
-0.00125289
-0.00401336
-0.00235296
-0.00248335
-0.00387558
-0.0040362
-0.0040362
-0.00488546
-0.00466237
-0.00526274
-0.0054404
-0.00523335
-0.00627812
-0.00483995
-0.00710704
-0.00410932
-0.00786494
-0.0030677
-0.00848627
-0.00177149
-0.00880393
-0.000280535
-0.008531
0.00127014
-0.00839556
0.00264012
-0.00875191
0.00374476
-0.00843214
0.00453178
-0.00780357
0.00498025
-0.00703678
0.00506863
-0.00621887
0.00475291
-0.005401
0.00396253
-0.00464708
0.00245686
-0.00404624
-0.00390185
0.000102913
3.03526e-05
-0.000277811
0.000118458
5.35927e-05
-6.43092e-05
0.000120534
-4.17572e-06
0.000120541
0.000217804
-0.000197187
0.000311459
0.000359388
-0.000296922
0.000506645
0.000430294
-0.0002697
0.000655354
0.000452672
-0.0002602
0.000773824
0.000437441
-0.00026214
0.000880438
0.000363731
-0.000239891
0.000966712
0.000240613
-0.00021223
0.00100208
0.000127719
-0.000215954
0.000961346
7.02613e-05
-0.000231704
0.00084736
3.94945e-05
-0.000218058
0.000732637
1.0519e-05
-0.000169488
0.000617715
1.31987e-05
-0.000167128
0.000519379
-4.69941e-06
-8.84696e-05
0.000390999
-7.50853e-05
5.79776e-05
0.000281741
-0.000126809
9.79537e-05
0.000216444
-8.83367e-05
6.89771e-05
0.000138893
5.44013e-05
-1.06313e-05
-0.000123209
0.000254345
-0.000842201
-0.00013081
8.06773e-05
-0.000369316
-1.73967e-05
-0.00023101
-1.74007e-05
0.000128575
-0.000520952
0.000159665
0.00013881
-0.000478075
0.000220171
0.000128698
-0.000407236
0.000263141
0.000182419
-0.000474681
0.000272923
0.000208671
-0.000453469
0.000259308
0.000193643
-0.000398033
0.000228079
0.000161903
-0.000359768
0.000192602
0.000108384
-0.000342267
0.000196151
4.96161e-05
-0.00034515
0.000219806
3.29237e-05
-0.000360034
0.000227343
4.36344e-05
-0.000317091
0.000200978
4.48448e-05
-0.000288293
0.000124375
0.000129631
-0.00031214
3.18215e-05
0.000305826
-0.000225074
-0.000114854
0.000322837
5.97047e-05
-0.000460104
0.000202056
0.00026105
-0.000871594
0.00037284
-0.00135101
0.000732389
0.000468692
6.37579e-05
0.000784979
0.00049927
0.000540949
0.000444181
0.00045059
0.000444177
-0.000144608
0.000251253
6.20695e-05
-0.000555557
-3.22114e-05
-0.000149085
-0.00048561
-0.000492202
-0.000113083
-0.000277324
-0.000737776
-0.000187722
-0.000186903
-0.00060222
-0.000305287
-6.95129e-05
-0.000588133
-0.000392648
5.86584e-05
-0.000575026
-0.00045552
0.000160385
-0.000539042
-0.000391415
0.000234821
-0.000505178
-0.0002802
0.000371447
-0.000559793
-0.000188733
0.000611114
-0.00057136
-0.000137887
0.000464586
-0.000122156
-0.000269337
2.39305e-06
0.000231245
-0.000266255
-0.000496499
0.000512715
-1.15999e-05
-0.000814765
0.000743901
0.000114244
-0.00073225
0.000757859
3.05262e-05
0.000668912
-0.00046767
0.00152651
-0.00124831
0.00299883
0.00238373
-0.000596829
0.00299268
0.00258005
5.79419e-05
0.00258005
0.00214631
0.000563212
0.00195147
0.00137622
0.000712786
0.00134882
0.00062722
0.000282062
0.000768098
1.44101e-05
-0.000194059
7.63624e-05
-0.000204854
-0.000497461
-0.000343565
-0.000122328
-0.000802865
-0.000565157
3.72433e-06
-0.000823318
-0.000767266
0.000111204
-0.000780739
-0.000643538
8.69995e-05
-0.000645436
-0.000351243
-0.000261413
-0.000334357
-8.17365e-05
-0.00086502
3.33282e-05
0.000385825
-0.00159651
0.00063308
0.000832119
-0.00228594
0.000856081
0.00130293
-0.00261746
0.000721936
0.00189125
-0.0023671
0.00030096
0.00247467
-0.00151584
-0.000313759
0.00287519
-0.000989161
0.00291375
0.00149622
-0.00320255
0.00218382
0.00252186
-0.00223339
0.0029134
0.00317064
-0.0012396
0.00317064
0.00343469
-0.000278549
0.00301545
0.00334874
0.000313961
0.00268464
0.00277656
0.000507147
0.00225044
0.00191632
0.000499159
0.00163603
0.001088
0.000267424
0.000948613
0.000390251
-0.000141819
0.000175086
-3.52172e-05
-0.000439116
-0.000443632
-0.000494346
-0.000401185
-0.000269996
-0.00120074
-9.77564e-06
0.000422954
-0.00199327
0.000357297
0.00114897
-0.00276675
0.000592669
0.00175741
-0.00318683
0.000702661
0.00220878
-0.00336644
0.000593169
0.00257298
-0.00319287
1.52981e-05
0.00294193
-0.00258029
-0.000912663
0.00314772
-0.00154255
-0.00193794
0.00295544
-0.0029843
0.00228412
0.00139922
-0.00445026
0.00030578
0.00218793
-0.00320083
0.00171856
0.00261577
-0.00209528
0.00261577
0.00279054
-0.000960333
0.00303425
0.00273331
-8.74768e-05
0.00309877
0.00237802
0.000504478
0.00288044
0.00185907
0.00073869
0.00250463
0.00124581
0.000690325
0.00204003
0.000601328
0.000525224
0.00141571
0.00011402
0.000307527
0.000725663
-0.000420254
0.000344746
0.00076837
-0.00110446
0.000608595
0.00147061
-0.0017695
0.00079208
0.0020501
-0.0023375
0.000858258
0.00250575
-0.00271137
0.00071446
0.00285787
-0.00279447
0.000233318
0.00306316
-0.00263874
-0.000633228
0.00303694
-0.0022146
-0.00177903
0.00267074
-0.0014139
-0.00294959
0.00181852
-0.00428318
0.000450362
0.00117939
-0.005133
-0.0010085
0.00175827
-0.0035817
0.000704006
0.00192108
-0.00242091
0.00192108
0.00186244
-0.00131674
0.00265326
0.00165973
-0.000369393
0.00299137
0.00139065
0.00032549
0.00298158
0.00109433
0.000640704
0.00279097
0.000765355
0.000699789
0.00255113
0.00039934
0.000664841
0.00232935
7.36001e-06
0.000614599
0.0021014
-0.000389677
0.000675287
0.0020482
-0.000775072
0.000775017
0.00225408
-0.00113884
0.000833259
0.00250655
-0.00146964
0.000785125
0.00276904
-0.00173509
0.000521291
0.00297008
-0.00191334
-6.68959e-05
0.0030045
-0.00194756
-0.00104287
0.0027186
-0.0017691
-0.00216532
0.00201251
-0.00118872
-0.00339394
0.000828857
-0.00501386
-0.000877188
0.000668912
-0.00511315
-0.00204046
0.000988312
-0.00340283
-0.000363071
0.000900807
-0.00224591
0.0009008
0.000691702
-0.00135459
0.00161057
0.000517384
-0.000682681
0.00195507
0.000427076
-0.000224012
0.00210076
0.000356963
3.25346e-05
0.0020554
0.000252008
0.000168182
0.00191394
0.000138336
0.000202038
0.00184304
-7.86551e-05
0.000337406
0.00187481
-0.000294155
0.000449228
0.00188474
-0.000387737
0.000358125
0.00186097
-0.000493308
0.000354469
0.00194039
-0.00058726
0.000224216
0.00209481
-0.000643602
-9.16841e-05
0.00219101
-0.000758163
-0.000502782
0.00205533
-0.000932123
-0.00116188
0.00168822
-0.000998271
-0.00207061
0.000998252
-0.000678914
-0.00327281
-0.00025652
-0.00503213
-0.00196029
-0.000480573
-0.00381797
-0.00317689
-0.000723467
-0.00253154
-0.0019077
-0.00097632
-0.00174021
-0.000976327
-0.00110107
-0.00131738
-0.000496938
-0.00105899
-0.001019
-0.000401704
-0.000892143
-0.000791864
-0.000471889
-0.000599132
-0.000589622
-0.000689907
-0.000314972
-0.000399951
-0.000778847
-0.000180002
-0.000186501
-0.00066312
-0.000203278
0.000151986
-0.000236943
-0.000164787
0.000219594
-0.000120846
7.22396e-07
-9.47368e-05
-0.000434464
0.000325122
-0.000300789
-0.000566934
0.000679224
-0.000490431
-0.000515066
0.000899167
-0.000704033
-0.000401292
0.000966203
-0.000931097
-0.000265573
0.000893793
-0.0012253
-0.000390842
0.000677872
-0.00165364
-0.000886155
0.00045912
-0.00246325
-0.00184371
-0.00377392
-0.00315206
-0.00298008
-0.00471347
-0.00466237
-0.00488547
-0.00553247
-0.00553248
-0.00590191
-0.00638834
-0.00585513
-0.0073439
-0.00543595
-0.00831808
-0.00467202
-0.00921849
-0.00356497
-0.00999326
-0.00210907
-0.0104463
-0.000266623
-0.0102215
0.00164588
-0.0100885
0.00316094
-0.0103617
0.00432343
-0.00989541
0.00514102
-0.00911159
0.00560813
-0.00820792
0.00571341
-0.00725524
0.00540351
-0.0063164
0.00458875
-0.00548596
0.00294962
-0.00487036
-0.00472616
0.000134223
-0.000209002
-0.000203034
0.000211535
-0.00013746
-4.16834e-06
0.00031145
-0.000197185
0.000217812
0.000445193
-0.000267476
0.000445203
0.000569325
-0.000273147
0.000655674
0.000630188
-0.000239742
0.000834246
0.000641182
-0.000235554
0.000998397
0.000587233
-0.000224942
0.00115934
0.000442413
-0.000193336
0.00130488
0.000221089
-0.000166915
0.00139033
1.13422e-05
-0.000179439
0.00135054
-0.000103521
-0.000211652
0.00117389
-0.000144289
-0.000219729
0.000993147
-0.000159146
-0.000172556
0.000805136
-0.000141662
-0.000135219
0.000637116
-0.000115626
-0.000102618
0.000467577
-0.000110614
-1.72315e-05
0.000293944
-0.000113912
7.67641e-05
0.000142955
-7.56495e-05
9.59947e-05
4.61282e-06
7.13243e-05
-0.000157633
-9.41033e-05
-0.000373382
-0.000583711
-1.81352e-05
-0.000382285
-0.000200457
0.000159665
-0.00052095
0.000128572
0.000280515
-0.000509162
0.000280514
0.000289588
-0.000400193
0.000338155
0.000325846
-0.000423778
0.00041093
0.000363243
-0.000458476
0.000458463
0.000332813
-0.000420959
0.000485769
0.000251609
-0.00038262
0.00049858
0.000146235
-0.000357761
0.000488833
2.2586e-05
-0.000349914
0.000490286
-9.5072e-05
-0.000354182
0.000480005
-0.00015493
-0.000364826
0.00043231
-0.000143286
-0.000344418
0.000361202
-0.00013941
-0.000265057
0.000250338
-7.67398e-05
-0.000284891
0.000151426
6.91403e-05
-0.000291139
1.31702e-05
0.000164538
-0.000216445
-0.000262308
0.000169341
-0.000138592
-0.00064183
-6.09606e-05
-0.00104941
0.000192105
0.000477117
-0.000978845
0.000245483
0.000392891
-0.000287603
6.20703e-05
0.000251253
-0.000144613
-0.000215862
4.6704e-05
-0.000215864
-0.000335146
-0.000245968
-0.000184023
-0.000162565
-0.000679425
-3.00109e-05
-4.65006e-05
-0.00070735
-5.49007e-05
-2.18165e-05
-0.000629467
-0.000121452
1.25489e-05
-0.00064626
-0.000163362
3.7481e-05
-0.000635156
-0.000203047
3.82019e-05
-0.000604347
-0.000137693
3.48118e-05
-0.000572645
-5.83384e-05
0.000103697
-0.000582574
-3.98625e-05
0.000308259
-0.000640873
-4.59881e-05
0.000358891
-0.000341437
-0.00024359
0.000172578
2.50758e-05
-0.000389913
-5.23465e-05
0.000295938
-0.000373757
-0.000200031
0.000477342
-0.000431863
-0.000180055
0.000580151
-0.000708196
0.000684485
-0.00139317
0.00120328
-4.80866e-05
0.00232076
0.00182969
0.000302044
0.00245712
0.00195147
0.000563213
0.00214631
0.00161149
0.000726661
0.00161149
0.00106987
0.000537121
0.00110736
0.000542883
-2.02791e-06
0.000617696
0.000132046
-0.00034991
0.000129763
-2.60866e-05
-0.000692654
-0.000122242
-3.27882e-05
-0.000894325
-0.000310385
-2.27379e-05
-0.000932162
-0.000480303
-3.37979e-05
-0.000884926
-0.000351894
-9.74164e-05
-0.000757637
-0.000102629
-0.000321746
-0.000505051
6.50713e-05
-0.000733452
-0.000162704
0.000319365
-0.0012488
0.000358133
0.000647898
-0.00176352
0.000792716
0.00105
-0.00200611
0.000862673
0.00156708
-0.00184008
0.000736141
0.00204982
-0.00121648
0.000512136
0.00231958
0.000182487
0.00219923
0.00152922
-0.0018059
0.00241241
0.00243773
-0.000891999
0.00319894
0.00301544
-0.000278548
0.00343469
0.00326506
0.000227435
0.00326506
0.00314378
0.000471892
0.00287115
0.00257012
0.000512103
0.00230997
0.0018098
0.000375761
0.00167068
0.00102309
2.6413e-05
0.00101626
0.000373523
-0.000448535
0.00037886
-6.49381e-05
-0.000815501
-0.00012183
-0.000539244
-0.000743605
6.29888e-05
-0.00120385
-0.000307838
0.000637757
-0.00192687
0.000141609
0.00122532
-0.00260647
0.000464533
0.00180976
-0.00304529
0.000661197
0.00234453
-0.00317375
0.00072675
0.0027674
-0.00300732
0.000507057
0.0031311
-0.00246261
-1.041e-05
0.00334956
-0.00155541
-0.00062049
0.00318085
-0.00157348
0.00248467
0.00165861
-0.00334922
0.000190484
0.00252723
-0.00179172
0.00174965
0.00303425
-0.000960332
0.00279054
0.00326339
-0.000230853
0.00326339
0.00319468
0.000340365
0.003299
0.00284247
0.000680664
0.00306409
0.00229218
0.000747729
0.00268294
0.00158118
0.000585734
0.00219171
0.000815991
0.00024514
0.00148722
5.77155e-05
-0.000147293
0.00081573
-0.00070432
-0.000119287
0.000906085
-0.00146797
0.000317778
0.00160864
-0.00218527
0.00065751
0.00225149
-0.00275725
0.000838548
0.00270371
-0.0031337
0.000840556
0.00305496
-0.00323441
0.000609764
0.00328085
-0.00301881
4.60173e-05
0.00328237
-0.00253586
-0.000684843
0.00286222
-0.00166764
-0.00157044
0.00190024
-0.00317504
0.000384281
0.00139794
-0.00443651
-0.00131915
0.00223822
-0.00240548
0.000477472
0.00265327
-0.00131673
0.00186243
0.00270906
-0.000342441
0.00270906
0.00255149
0.000389955
0.00309935
0.00226781
0.000792471
0.00315344
0.0018826
0.000914114
0.0030098
0.00140235
0.000835827
0.00278129
0.000778656
0.000688626
0.00250955
4.99585e-05
0.000558062
0.00212474
-0.000681672
0.000581404
0.00207913
-0.00131184
0.000745492
0.00245653
-0.00182199
0.000915793
0.00275841
-0.00223949
0.00101082
0.00301426
-0.00253928
0.000933485
0.00317693
-0.00266608
0.000590704
0.00315035
-0.00264356
-4.34797e-05
0.00278557
-0.0022305
-0.00109414
0.00200875
-0.00140508
-0.0022306
0.000663583
-0.00431586
-0.00114146
0.000753361
-0.00481558
-0.00241477
0.00136362
-0.00267773
-0.000701097
0.00161058
-0.00135459
0.000691694
0.0016455
-0.000412292
0.00164549
0.00156569
0.000261654
0.00216318
0.00139211
0.000744292
0.00232251
0.00119394
0.000879796
0.00228788
0.000927131
0.000854832
0.00216174
0.00057053
0.000827697
0.00206057
-4.92311e-06
0.000987456
0.00202086
-0.000582188
0.00102418
0.00201922
-0.000932834
0.000891921
0.00206518
-0.0012041
0.000933094
0.00219434
-0.00141345
0.000971216
0.00234376
-0.00157141
0.000873503
0.00240895
-0.00166537
0.000467015
0.00227297
-0.00158761
-0.000252403
0.00181938
-0.00135262
-0.00119537
0.000864492
-0.000759059
-0.00254889
-0.000531803
-0.00472662
-0.0023086
-0.000561995
-0.00387296
-0.00355753
-0.000584457
-0.00229307
-0.0022699
-0.000496933
-0.00131738
-0.00110107
-0.000325066
-0.000756031
-0.000325073
-8.30628e-05
-0.000289132
-9.29266e-05
0.000116056
5.91707e-05
1.41086e-05
0.000233572
0.00022957
-0.000157201
0.000246355
0.00037579
-0.000312593
0.000120909
0.000592107
-0.00030209
-0.000111997
0.00104505
-6.16341e-05
-0.000340887
0.00108494
4.72797e-05
-0.000403088
0.000640105
-0.000120452
-0.000347671
0.000421818
-0.00011108
-0.000203046
0.000276422
3.50983e-05
-1.06907e-05
0.000128626
0.000151225
0.000258601
-0.00017793
0.000110074
0.000443457
-0.000674166
-0.000153942
0.000544216
-0.00123707
-0.000945228
0.000541642
-0.00222467
-0.00216537
-0.00382147
-0.00351557
-0.00352459
-0.00506185
-0.00544039
-0.00526274
-0.00638833
-0.00590192
-0.00676635
-0.00676635
-0.00668668
-0.0077127
-0.00620842
-0.00873716
-0.00539317
-0.00980416
-0.00419669
-0.0108139
-0.0025307
-0.0115202
-0.000233217
-0.0114739
0.00212777
-0.0113645
0.00383381
-0.0114276
0.00506815
-0.0107079
0.00591705
-0.00968407
0.00644045
-0.00860269
0.00658885
-0.00758158
0.00626288
-0.00666459
0.00536485
-0.00582501
0.00349047
-0.00522066
-0.00505717
0.000191559
-0.000356346
-3.82323e-05
0.000351286
-0.000307381
0.000143499
0.000506636
-0.00029692
0.000359397
0.000655663
-0.000273146
0.000569336
0.000776286
-0.000241233
0.000776298
0.000847406
-0.000221665
0.000984801
0.000859337
-0.000221221
0.0012077
0.000776469
-0.000208993
0.00145121
0.000555809
-0.000177619
0.00170316
0.000196881
-0.000149197
0.00189845
-0.000154317
-0.000163006
0.00186475
-0.000332953
-0.000212269
0.0015648
-0.000380368
-0.000227122
0.0012677
-0.000364284
-0.000190277
0.000979339
-0.000324487
-0.000127737
0.000725059
-0.000270134
-9.21748e-05
0.000505396
-0.000211439
-7.02487e-05
0.00030549
-0.000153328
-3.21781e-05
0.000117008
-7.32283e-05
-2.4623e-05
-5.08818e-05
-4.56803e-05
-0.000185201
-5.41332e-05
-0.000399675
-0.000486235
4.92404e-05
-0.000469572
-0.000141627
0.000220171
-0.000478073
0.000138808
0.000338155
-0.000400192
0.000289588
0.000416841
-0.000398595
0.000416842
0.000503598
-0.000444737
0.000547255
0.000527521
-0.000434983
0.000648316
0.000464705
-0.000406869
0.000746473
0.000318789
-0.000383026
0.000849916
0.000125844
-0.000370792
0.000903384
-7.72163e-05
-0.000371455
0.000901807
-0.000245169
-0.000380525
0.000816226
-0.000328409
-0.000382649
0.00067109
-0.000317067
-0.000369097
0.00052869
-0.000261789
-0.000302891
0.000370218
-0.000180112
-0.000234279
0.000211852
-3.85115e-05
-0.000253218
5.45388e-05
8.5427e-05
-0.000223024
-0.000195404
0.000129959
-0.000174083
-0.000536907
-7.89295e-05
-0.000886205
-0.000113998
0.000254033
-0.00151855
-0.000114172
0.000109322
-0.000866321
-0.000149083
-3.22119e-05
-0.000555561
-0.000184022
-0.000245969
-0.000335147
-8.77739e-05
-0.000591088
-8.77732e-05
8.67782e-05
-0.000750346
0.000101056
0.000153233
-0.000681465
0.000125137
0.000143104
-0.000667704
0.000149522
9.7885e-05
-0.000694817
0.000193659