/*--------------------------------*- C++ -*----------------------------------*\
| =========                 |                                                 |
| \\      /  F ield         | OpenFOAM: The Open Source CFD Toolbox           |
|  \\    /   O peration     | Version:  1.7.1                                 |
|   \\  /    A nd           | Web:      www.OpenFOAM.com                      |
|    \\/     M anipulation  |                                                 |
\*---------------------------------------------------------------------------*/
FoamFile
{
    version     2.0;
    format      ascii;
    class       volVectorField;
    location    "1800";
    object      U;
}
// * * * * * * * * * * * * * * * * * * * * * * * * * * * * * * * * * * * * * //

dimensions      [0 1 -1 0 0 0 0];

internalField   nonuniform List<vector> 
4000
(
(1.66725e-05 -0.00146295 1.6674e-05)
(-0.000271587 0.00102241 0.000209848)
(-0.000854053 0.00194391 0.000273224)
(-0.000939329 -0.000133587 0.000283001)
(-0.000418261 -0.00149857 0.000387183)
(0.000107505 -0.0014988 0.000490888)
(0.000375498 -0.00118027 0.000567501)
(0.000636559 -0.00109335 0.000628183)
(0.000806295 -0.0010414 0.000670861)
(0.000880876 -0.000956531 0.000676098)
(0.000933191 -0.000935104 0.000634666)
(0.00100443 -0.000876377 0.000571703)
(0.00106682 -0.000784526 0.000509102)
(0.001019 -0.000885052 0.000452629)
(0.000974638 -0.00114216 0.00038744)
(0.000952618 -0.000427645 0.000315006)
(0.000719456 0.00131405 0.000346359)
(-0.000130447 0.00140322 0.000412177)
(-0.000312618 -0.000551386 0.000445826)
(-0.000231181 -0.00318993 0.000255195)
(-0.000342587 0.00240278 -0.000342611)
(-0.00201561 -0.000680244 -0.000315904)
(-0.00302028 -0.00187651 -0.000367589)
(-0.00242177 -0.00160869 -0.00039961)
(-0.00179033 -0.000854274 -0.000287323)
(-0.00165449 -0.000731957 -0.000107477)
(-0.00130896 -0.00145895 -0.000130798)
(-0.000656079 -0.00172687 -0.000123197)
(-8.27385e-05 -0.00167896 -0.000174962)
(0.000419923 -0.00145877 -0.000271009)
(0.000883971 -0.00138187 -0.000274156)
(0.00122112 -0.00125414 -0.000209476)
(0.00157381 -0.00091709 -0.000185926)
(0.00195811 -0.000210051 -0.000180898)
(0.00224675 -4.80646e-05 -0.000265587)
(0.00281011 -0.000530945 -0.000462324)
(0.00384397 -0.00136076 -0.000449246)
(0.00404492 -0.00154814 -0.00058794)
(0.00248981 -0.000684688 -0.000760601)
(0.000389811 0.00233256 -0.00101323)
(0.00312696 0.00328854 0.00312695)
(0.00401673 0.00597532 0.00251356)
(0.00289494 0.00426119 0.0018579)
(-0.00235967 -0.000355162 0.000155296)
(-0.00487904 -0.00203096 -0.000410484)
(-0.00513303 -0.00264537 -0.00040412)
(-0.00419312 -0.00251377 -0.000722533)
(-0.0027909 -0.00197716 -0.000874372)
(-0.00162364 -0.0016479 -0.00108587)
(-0.000345595 -0.0014677 -0.00129364)
(0.00122057 -0.00133164 -0.00121107)
(0.00235025 -0.00128557 -0.000926824)
(0.00365006 -0.00155757 -0.000735402)
(0.00514459 -0.00194715 -0.000437672)
(0.00602711 -0.00183197 -0.000519284)
(0.00478342 -0.00083771 -0.000465586)
(0.00166404 0.0011349 0.000433455)
(-0.00280353 0.00590261 0.00157211)
(-0.0038647 0.00668849 0.00199943)
(-0.00317239 0.00439605 0.00274121)
(0.00337143 -0.0129189 0.00337144)
(0.00810752 -0.00684143 0.00374861)
(0.0105285 -0.000853379 0.00358164)
(0.00983588 0.00316057 0.00292852)
(0.00649319 0.00402179 0.00234594)
(0.00101059 0.000502807 0.00121915)
(-0.00252324 -0.00226544 -0.000521368)
(-0.00304059 -0.00252566 -0.00126383)
(-0.00237896 -0.0021359 -0.00186131)
(-0.000645025 -0.00177406 -0.00231885)
(0.00169028 -0.0017126 -0.00210561)
(0.00302202 -0.00191383 -0.00150155)
(0.00327151 -0.00224773 -0.00101755)
(0.00234228 -0.00171162 7.98262e-05)
(-0.0031634 0.00299716 0.00169944)
(-0.00695592 0.00416498 0.002059)
(-0.0100776 0.00352215 0.00281513)
(-0.0103618 0.000612911 0.00347124)
(-0.00809822 -0.00507195 0.00371891)
(-0.00339133 -0.011475 0.00340452)
(0.00173124 -0.0218679 0.00173124)
(0.00500422 -0.0147627 0.00254524)
(0.00657836 -0.00853698 0.00302911)
(0.00817933 -0.00361279 0.00338536)
(0.00880518 -0.000251427 0.0034946)
(0.008164 0.000902118 0.00335357)
(0.00606385 0.00150552 0.00298316)
(0.00255778 0.00136851 0.00222617)
(0.000235912 0.000658611 0.00119643)
(0.000592482 0.000196777 0.000461204)
(0.00117673 0.000310281 0.000649413)
(0.000776606 0.000740729 0.00131581)
(-0.00270719 0.00181686 0.00240938)
(-0.00646776 0.00200387 0.00291721)
(-0.00803939 0.00194777 0.00321356)
(-0.00881194 0.000723364 0.00339794)
(-0.00851302 -0.00254518 0.00341958)
(-0.0070379 -0.00748254 0.00313421)
(-0.00529929 -0.0134569 0.00263962)
(-0.00177909 -0.0207383 0.0018327)
(0.000635726 -0.0267883 0.00063572)
(0.00211407 -0.0199778 0.00175082)
(0.00096603 -0.0137788 0.00240502)
(0.000921033 -0.0090951 0.00305762)
(0.000445489 -0.00633717 0.0036031)
(-0.000122369 -0.004638 0.00371396)
(-0.000538753 -0.0033652 0.00354586)
(-0.000384927 -0.00241034 0.00329097)
(-5.07822e-05 -0.00204984 0.00311404)
(0.000130742 -0.00192411 0.00311055)
(0.000197619 -0.00131736 0.0031818)
(-0.000105801 -0.00105385 0.00310956)
(-2.92082e-06 -0.00124847 0.00332966)
(-5.20692e-05 -0.00252204 0.00358688)
(-0.000572664 -0.00371638 0.00379836)
(-0.0009696 -0.00523642 0.00369502)
(-0.00138738 -0.00806464 0.00315198)
(-0.00138058 -0.0127809 0.00248034)
(-0.00235256 -0.0189885 0.00179743)
(-0.000654763 -0.0260113 0.000723262)
(-0.000242027 -0.028036 -0.000242036)
(-0.000190717 -0.0221117 0.000997954)
(-0.00312678 -0.0171409 0.00134166)
(-0.00416231 -0.0140109 0.00154311)
(-0.00494404 -0.012132 0.00154503)
(-0.00500044 -0.01108 0.00140668)
(-0.00442641 -0.010396 0.0011543)
(-0.00330936 -0.00989312 0.000955464)
(-0.00186777 -0.00950968 0.000995749)
(-0.00086756 -0.00907776 0.00138474)
(-2.95859e-05 -0.00825038 0.00159283)
(0.000847734 -0.00829966 0.00114079)
(0.00235483 -0.00873461 0.00106657)
(0.00348623 -0.00938068 0.0012362)
(0.00410332 -0.010144 0.00148365)
(0.00416751 -0.0112617 0.00161948)
(0.00353764 -0.0131932 0.00159974)
(0.00269717 -0.0163983 0.00138089)
(-5.9759e-05 -0.0214573 0.00100499)
(0.000225232 -0.0275698 -0.000178512)
(-0.0014057 -0.0255947 -0.00140571)
(-0.00255924 -0.0214626 -0.000247278)
(-0.00639854 -0.0184227 -0.000442057)
(-0.00797057 -0.0169915 -0.000764383)
(-0.00868948 -0.0163926 -0.00124258)
(-0.00834203 -0.0162306 -0.0017351)
(-0.00713259 -0.0161699 -0.00219953)
(-0.00526144 -0.0160312 -0.00253206)
(-0.00300003 -0.0157277 -0.00256427)
(-0.00140079 -0.0152084 -0.00209914)
(7.95829e-05 -0.0145244 -0.00190171)
(0.00165589 -0.0147628 -0.002497)
(0.00408471 -0.0151171 -0.00248673)
(0.0060606 -0.0153647 -0.00214998)
(0.00739255 -0.0155105 -0.00168345)
(0.00788397 -0.0157438 -0.00119874)
(0.00732801 -0.0164145 -0.000735509)
(0.0059553 -0.0179305 -0.000430582)
(0.00230122 -0.0210778 -0.000265462)
(0.00137286 -0.0253508 -0.00137954)
(-0.00330901 -0.0195004 -0.00330902)
(-0.00570284 -0.0170204 -0.00264814)
(-0.0101094 -0.0158201 -0.0033082)
(-0.0119616 -0.0157593 -0.00406623)
(-0.0125329 -0.0161173 -0.00486106)
(-0.0118116 -0.0166335 -0.00561278)
(-0.010026 -0.0171127 -0.00625327)
(-0.00739876 -0.0174258 -0.00667106)
(-0.00424719 -0.0174696 -0.00665524)
(-0.00195137 -0.0172212 -0.00589682)
(0.000411064 -0.0168608 -0.00560763)
(0.00271681 -0.0169695 -0.00651964)
(0.00610475 -0.0169554 -0.00654881)
(0.0088949 -0.0166821 -0.00614319)
(0.0108465 -0.0162309 -0.0055302)
(0.0117392 -0.0157488 -0.00480287)
(0.0113395 -0.0154348 -0.00403641)
(0.0096762 -0.0155557 -0.00331185)
(0.0054482 -0.0168382 -0.00268235)
(0.003261 -0.0194119 -0.0033277)
(-0.00645617 -0.0123166 -0.00645618)
(-0.0107839 -0.0102709 -0.00726611)
(-0.0153239 -0.00938848 -0.00889921)
(-0.0172121 -0.00923628 -0.0105653)
(-0.0176312 -0.00924245 -0.0122523)
(-0.0166392 -0.00924981 -0.0138687)
(-0.0143851 -0.00914648 -0.0153197)
(-0.0109856 -0.00886253 -0.0164613)
(-0.00669941 -0.00836172 -0.0169568)
(-0.00313965 -0.00778787 -0.0161167)
(0.0013038 -0.00753693 -0.015777)
(0.00501243 -0.00804603 -0.0169248)
(0.00959892 -0.00859135 -0.0164217)
(0.0132136 -0.00890052 -0.0152584)
(0.0156577 -0.00900934 -0.0137938)
(0.0168348 -0.00900992 -0.0121939)
(0.0166081 -0.00902358 -0.0105454)
(0.0149271 -0.00921042 -0.0089295)
(0.010582 -0.0101496 -0.00734316)
(0.00642606 -0.0122668 -0.0065325)
(0.00020984 0.00102243 -0.000271576)
(0.000175567 0.00196186 0.000175587)
(-0.000158212 0.00184432 0.000418609)
(-0.000236257 0.000200976 0.000590544)
(0.000225676 -0.00102598 0.000909784)
(0.000688714 -0.00115121 0.00117477)
(0.00090014 -0.000890376 0.00138219)
(0.00105469 -0.000836832 0.00154614)
(0.00109584 -0.000750932 0.00166531)
(0.000988406 -0.000651578 0.00169141)
(0.000815428 -0.000652638 0.00159602)
(0.000704976 -0.00066625 0.0014038)
(0.00068975 -0.000605532 0.00121325)
(0.000600411 -0.000668662 0.00105441)
(0.000531614 -0.000832281 0.000889567)
(0.000495638 -0.000102657 0.000732059)
(0.000223616 0.00125094 0.000768943)
(-0.000382817 0.0015821 0.000816118)
(-0.000501028 0.000781139 0.000835988)
(-0.000282443 -0.000207174 0.000499539)
(-0.000315893 -0.000680245 -0.00201564)
(-0.00102931 -0.00153331 -0.00102933)
(-0.00140899 -0.0016513 -0.000540964)
(-0.000894475 -0.00137228 -0.000309831)
(-0.000584843 -0.00104899 -8.39517e-05)
(-0.000498014 -0.000784335 0.000216495)
(-0.000349788 -0.00123193 0.000186599)
(7.68827e-05 -0.00146937 0.000145615)
(0.000339069 -0.00132757 2.29369e-05)
(0.000538618 -0.00112242 -0.000127572)
(0.000683622 -0.0010773 -0.000119056)
(0.000724639 -0.00107277 -1.14439e-05)
(0.000815532 -0.000885173 5.53555e-05)
(0.00097324 -0.000368347 6.72347e-05)
(0.00112779 -0.000326014 -0.000148592)
(0.00149157 -0.000611004 -0.00051488)
(0.00210041 -0.0011158 -0.000761025)
(0.00232697 -0.00147953 -0.00147504)
(0.00156664 -0.00143984 -0.00234422)
(0.000475891 -0.000722741 -0.00356706)
(0.00251357 0.00597531 0.00401671)
(0.00361637 0.0049998 0.00361635)
(0.0032924 0.00251965 0.00294478)
(0.000404121 -0.000801309 0.00103311)
(-0.00262824 -0.0024187 -0.000375579)
(-0.00306573 -0.00252564 -0.000398331)
(-0.00250609 -0.00240743 -0.000830133)
(-0.00163899 -0.00181161 -0.0011767)
(-0.000974955 -0.00150994 -0.00150733)
(-0.000148003 -0.00139651 -0.00179138)
(0.000760761 -0.00126601 -0.00161614)
(0.00142897 -0.001235 -0.00119931)
(0.00218155 -0.0016104 -0.000839906)
(0.00299529 -0.00195378 -0.000404979)
(0.00353185 -0.00203016 -0.000751378)
(0.0021249 -0.00129809 -0.000536425)
(-0.0010243 0.000933224 0.00110807)
(-0.0031094 0.00417327 0.00196203)
(-0.00350979 0.00580522 0.00246115)
(-0.00258442 0.00674794 0.00292401)
(0.0037486 -0.00684143 0.00810753)
(0.00796413 -0.00281588 0.00796414)
(0.0104051 0.00105114 0.00696183)
(0.009931 0.00320724 0.00538874)
(0.00718609 0.0032816 0.00400866)
(0.00319271 0.000379649 0.00253122)
(-0.00021799 -0.00259076 -0.000108011)
(-0.00156048 -0.00272426 -0.00154643)
(-0.00135194 -0.00258055 -0.00233473)
(-0.000402108 -0.00243037 -0.00302509)
(0.00081007 -0.00230499 -0.00267666)
(0.00153605 -0.00221134 -0.00178628)
(0.00123578 -0.00242865 -0.000892975)
(-0.000998424 -0.00115901 0.00129942)
(-0.00447802 0.00220111 0.00271303)
(-0.00770958 0.00356703 0.00368043)
(-0.0101352 0.00356617 0.00517638)
(-0.0102175 0.00217057 0.00664488)
(-0.00786893 -0.00123597 0.00772698)
(-0.00377832 -0.00538894 0.00811211)
(0.00254524 -0.0147627 0.00500422)
(0.00651962 -0.0103137 0.00651962)
(0.00898068 -0.00561396 0.00708888)
(0.0108365 -0.0012759 0.00690047)
(0.0113718 0.00140494 0.00626318)
(0.0104155 0.00192129 0.00548306)
(0.00800879 0.00167782 0.00441062)
(0.00437027 0.000752604 0.00285638)
(0.00170184 -0.00125261 0.000622747)
(0.00053926 -0.00251346 -0.00136366)
(-0.000189523 -0.00241256 -0.000975533)
(-0.00156475 -0.000667851 0.00127825)
(-0.00462588 0.0011648 0.0032613)
(-0.00796316 0.00206283 0.0044878)
(-0.00984484 0.00263675 0.00535027)
(-0.0110498 0.00212785 0.00608917)
(-0.0109866 -0.000287663 0.00684872)
(-0.00928701 -0.00451587 0.00719253)
(-0.0067601 -0.00907446 0.00670764)
(-0.00263942 -0.0137294 0.00528612)
(0.00175083 -0.0199778 0.00211406)
(0.00502168 -0.0153766 0.00502168)
(0.00549293 -0.0100676 0.00670083)
(0.00605653 -0.00513974 0.00759169)
(0.00594769 -0.00170399 0.00802601)
(0.00557764 0.000489123 0.00778147)
(0.00441965 0.00168588 0.00709221)
(0.00304202 0.00215637 0.00620989)
(0.00178572 0.00214704 0.00539714)
(0.00070886 0.002077 0.00452756)
(1.05143e-05 0.00221055 0.004423)
(-0.00131809 0.00247292 0.00510098)
(-0.0028668 0.00258335 0.00603596)
(-0.00451997 0.00210936 0.00695231)
(-0.00586033 0.00136089 0.00765469)
(-0.00632347 -0.000451968 0.00794828)
(-0.00627428 -0.00396562 0.00764105)
(-0.00572908 -0.00888838 0.00679036)
(-0.00513878 -0.0142932 0.00517112)
(-0.00178245 -0.019241 0.00239717)
(0.000997961 -0.0221117 -0.000190732)
(0.00385278 -0.0175454 0.00385277)
(0.00250715 -0.0123479 0.00609154)
(0.0020352 -0.0077 0.00726429)
(0.00120537 -0.00425443 0.00793225)
(0.000555965 -0.00192944 0.0081477)
(0.000425474 -0.000432913 0.0080347)
(0.000304365 9.65033e-05 0.00780767)
(0.000213117 0.000137131 0.00766169)
(-4.8642e-05 6.52261e-06 0.00758195)
(-0.000208006 0.00038882 0.00751426)
(-0.000630626 0.000792942 0.00751368)
(-0.000915805 0.000878103 0.00772839)
(-0.00116522 0.000354846 0.0079783)
(-0.00131984 -0.00103772 0.00811924)
(-0.0017145 -0.00332373 0.0079499)
(-0.0024106 -0.00670016 0.00731956)
(-0.00273992 -0.0113793 0.00616217)
(-0.0039251 -0.0167313 0.00396403)
(-0.00100689 -0.0216448 6.39395e-05)
(-0.000247271 -0.0214626 -0.00255926)
(0.00204919 -0.0170893 0.00204917)
(-0.000884059 -0.0126574 0.00424889)
(-0.00192803 -0.00934094 0.00502862)
(-0.00285249 -0.00691286 0.00513314)
(-0.00304785 -0.00510631 0.00495262)
(-0.0027652 -0.00361194 0.00471663)
(-0.00215986 -0.00230376 0.00459971)
(-0.00136789 -0.00120631 0.00472835)
(-0.000925021 -0.000266805 0.00519644)
(-0.000297677 0.000452801 0.0054641)
(0.000256309 1.1343e-05 0.00507512)
(0.00119514 -0.00113836 0.00489289)
(0.00189213 -0.00258945 0.00493384)
(0.00226278 -0.00422068 0.00507046)
(0.00220822 -0.00609251 0.00519748)
(0.00145278 -0.00855941 0.00507633)
(0.000601968 -0.011984 0.00429504)
(-0.00214596 -0.016544 0.00211907)
(0.000232368 -0.0211764 -0.00242192)
(-0.00264813 -0.0170204 -0.00570287)
(-0.0022341 -0.0134826 -0.00223412)
(-0.00602209 -0.011117 -0.00102236)
(-0.00746783 -0.0100507 -0.00099287)
(-0.00814447 -0.00950957 -0.00147429)
(-0.00776022 -0.00932409 -0.00206563)
(-0.00656066 -0.00930894 -0.00257565)
(-0.00477955 -0.00935989 -0.00279618)
(-0.00268144 -0.00938079 -0.00242631)
(-0.00143219 -0.00906542 -0.00109784)
(3.38383e-05 -0.00873764 -0.000616519)
(0.0013152 -0.00894109 -0.00203743)
(0.00355731 -0.00890361 -0.00247245)
(0.00546074 -0.00886617 -0.00229179)
(0.00683359 -0.00889235 -0.00184324)
(0.00742322 -0.00908818 -0.0012886)
(0.00694081 -0.00964119 -0.000873378)
(0.0057016 -0.0107466 -0.000961826)
(0.00207317 -0.013191 -0.00220463)
(0.00261892 -0.0168755 -0.00569354)
(-0.0072661 -0.0102709 -0.0107839)
(-0.0112561 -0.00712856 -0.0112561)
(-0.0159226 -0.00533401 -0.0132612)
(-0.0178511 -0.00441322 -0.0156538)
(-0.0184254 -0.00371107 -0.0181993)
(-0.0176559 -0.00306256 -0.0206857)
(-0.0156801 -0.00233606 -0.0229237)
(-0.0125513 -0.0014814 -0.0247152)
(-0.00831687 -0.000467441 -0.0255824)
(-0.00429722 0.000657375 -0.024682)
(0.0024431 0.000873764 -0.0242492)
(0.00672031 -0.000264469 -0.0254436)
(0.011185 -0.00131848 -0.0245789)
(0.0145141 -0.0021823 -0.0227703)
(0.0166781 -0.00288354 -0.0205145)
(0.0176489 -0.00350895 -0.0180596)
(0.0172873 -0.00419947 -0.0155739)
(0.0155771 -0.00512389 -0.0132586)
(0.0110976 -0.00695517 -0.0113314)
(0.00724686 -0.0101746 -0.0108931)
(0.000273218 0.00194392 -0.000854044)
(0.000418591 0.00184433 -0.000158192)
(0.000343494 0.00120635 0.00034352)
(0.000545192 -0.000183243 0.000888108)
(0.00100316 -0.000908736 0.00147768)
(0.00137355 -0.000900246 0.00190662)
(0.0015349 -0.000721274 0.0022374)
(0.00157245 -0.000658518 0.00252369)
(0.001434 -0.000535046 0.00274494)
(0.00107556 -0.000412879 0.00281594)
(0.000619544 -0.000440867 0.00268401)
(0.000287653 -0.000543505 0.00237714)
(0.000182204 -0.000546573 0.00206948)
(8.78091e-05 -0.000534259 0.00178001)
(2.63019e-05 -0.000682895 0.00151835)
(3.82308e-05 -0.000149413 0.00118148)
(-8.14844e-05 0.00103884 0.000970541)
(-0.000385147 0.00164437 0.000869938)
(-0.000437011 0.00171431 0.000743086)
(-0.000211506 0.00176536 0.000311964)
(-0.000367583 -0.0018765 -0.0030203)
(-0.000540952 -0.0016513 -0.001409)
(-0.000318082 -0.0013288 -0.000318093)
(0.000254809 -0.00140287 0.00023724)
(0.000489145 -0.00102744 0.000456569)
(0.000429838 -0.000780145 0.000621023)
(0.000520936 -0.00114302 0.000613105)
(0.000694947 -0.00123319 0.00052852)
(0.000694318 -0.0010566 0.000380859)
(0.000623101 -0.000922857 0.00023236)
(0.000494059 -0.000912833 0.000247649)
(0.000280239 -0.000957651 0.000365856)
(9.24428e-05 -0.000904048 0.00044608)
(0.000128718 -0.000489137 0.000406245)
(0.00014348 -0.000310948 0.000182555)
(0.000236365 -0.000542277 -0.000151419)
(0.000714536 -0.000786863 -0.000631275)
(0.00121435 -0.00114056 -0.00173344)
(0.000956393 -0.00137471 -0.0030705)
(0.000468908 -0.00152506 -0.00476102)
(0.0018579 0.00426115 0.00289489)
(0.00294479 0.00251963 0.00329237)
(0.00253101 0.000155412 0.002531)
(0.000508783 -0.00184498 0.000781598)
(-0.00169991 -0.00263246 -0.000469327)
(-0.00181643 -0.00247136 -0.000437135)
(-0.00129929 -0.00233202 -0.000789677)
(-0.000812118 -0.00174322 -0.00125865)
(-0.000471915 -0.00156567 -0.00160702)
(-1.66764e-05 -0.00149432 -0.0018524)
(0.000408368 -0.00138708 -0.00164147)
(0.000708304 -0.00133739 -0.00122833)
(0.00101533 -0.00164247 -0.000824305)
(0.0016817 -0.00200813 -0.000552998)
(0.00217707 -0.00198399 -0.000938594)
(0.00113232 -0.00167155 -0.000715717)
(-0.00109561 -0.000467786 0.000635745)
(-0.00259334 0.00175036 0.00148974)
(-0.00290745 0.00363852 0.00172164)
(-0.00187967 0.004807 0.000995424)
(0.00358163 -0.000853369 0.0105285)
(0.00696182 0.00105115 0.0104051)
(0.00900122 0.00274295 0.00900123)
(0.00857989 0.0033343 0.00689434)
(0.00636118 0.00253457 0.004948)
(0.00323526 -0.000402234 0.00289575)
(0.000741845 -0.00272709 0.000168006)
(-0.00063261 -0.00278983 -0.00147105)
(-0.000629797 -0.00281563 -0.00229832)
(-0.000235668 -0.00265705 -0.00301286)
(0.000256544 -0.00254979 -0.00260493)
(0.000512416 -0.0024468 -0.00160381)
(-2.42075e-05 -0.00248979 -0.000472551)
(-0.00156986 -0.00156075 0.00140858)
(-0.00423225 0.00134482 0.00313846)
(-0.00690625 0.00310149 0.00467723)
(-0.00889391 0.00362598 0.00668609)
(-0.00893528 0.00332999 0.00859869)
(-0.00688433 0.00208263 0.00997128)
(-0.00359181 0.000185147 0.0102594)
(0.00302911 -0.00853696 0.00657836)
(0.00708887 -0.00561395 0.00898068)
(0.00994434 -0.00246179 0.00994435)
(0.0117031 0.000590726 0.00957786)
(0.011947 0.0021 0.00857728)
(0.0109104 0.00201296 0.00731338)
(0.00836439 0.00119336 0.00552535)
(0.00492503 -0.000389831 0.00326057)
(0.00223537 -0.00258491 0.000398869)
(0.000476692 -0.0034074 -0.00180875)
(-0.000713403 -0.00318769 -0.00127084)
(-0.00261279 -0.00195469 0.00123724)
(-0.00542144 0.000162509 0.00389855)
(-0.00850862 0.00168901 0.00585263)
(-0.0103701 0.00265789 0.00714666)
(-0.0115723 0.00281083 0.00828476)
(-0.0116854 0.00148532 0.00942001)
(-0.0101021 -0.00140286 0.00997381)
(-0.00726719 -0.00460987 0.00919983)
(-0.00313149 -0.00774648 0.00695048)
(0.00240502 -0.0137788 0.000966023)
(0.00670084 -0.0100675 0.00549292)
(0.00833491 -0.00640419 0.00833491)
(0.00942674 -0.00268173 0.00972107)
(0.00976124 0.000252822 0.010061)
(0.00907886 0.00188158 0.0094965)
(0.00742054 0.00255713 0.00834551)
(0.00529944 0.00244775 0.00686392)
(0.00310046 0.00186461 0.00502756)
(0.00111353 0.000974001 0.00277735)
(-0.000358627 0.000982118 0.00281418)
(-0.00249887 0.00198629 0.00504084)
(-0.00491688 0.00260672 0.00681175)
(-0.00722087 0.00283568 0.00829689)
(-0.00894524 0.00262027 0.00939651)
(-0.00975144 0.00142268 0.00995664)
(-0.00948061 -0.00145429 0.00976696)
(-0.00843346 -0.00525422 0.00851255)
(-0.00675705 -0.00909654 0.00579888)
(-0.00245247 -0.0131354 0.00140026)
(0.00134167 -0.0171409 -0.0031268)
(0.00609155 -0.0123479 0.00250714)
(0.00636374 -0.00830576 0.00636373)
(0.00659846 -0.00429848 0.00860041)
(0.00610984 -0.00108366 0.00979568)
(0.00534575 0.00103682 0.00989543)
(0.00436217 0.00190152 0.0092818)
(0.00321953 0.00169227 0.00851471)
(0.00200635 0.00111884 0.0078571)
(0.000687698 0.000603405 0.0073398)
(-0.000621832 0.000829124 0.00716068)
(-0.00199491 0.00154362 0.00755561)
(-0.00331405 0.00221549 0.00829576)
(-0.0045821 0.00243206 0.00914308)
(-0.00562613 0.00172316 0.00980451)
(-0.00639907 -0.000166415 0.00988846)
(-0.00670272 -0.00326307 0.00877807)
(-0.00642768 -0.0073083 0.00660778)
(-0.00609521 -0.011594 0.00283988)
(-0.00137772 -0.0166695 -0.0027497)
(-0.000442053 -0.0184226 -0.00639856)
(0.0042489 -0.0126574 -0.000884086)
(0.00309062 -0.00849584 0.0030906)
(0.00279265 -0.00451932 0.00511365)
(0.00199346 -0.00101322 0.00592897)
(0.00164706 0.00182834 0.00630117)
(0.00141335 0.00351613 0.00610243)
(0.00106768 0.00428865 0.0055727)
(0.000753991 0.00467228 0.00537924)
(0.000137243 0.00478479 0.00567566)
(-0.000676953 0.00499496 0.00581058)
(-0.00125789 0.00504143 0.00557968)
(-0.00152002 0.00472197 0.00577549)
(-0.00191451 0.00402541 0.00628299)
(-0.00220674 0.00261699 0.00662248)
(-0.00232393 -8.09099e-05 0.00617222)
(-0.00296721 -0.00361161 0.00530503)
(-0.00315398 -0.00772337 0.00332363)
(-0.0042643 -0.0121486 -0.00058885)
(0.000403466 -0.018087 -0.00617164)
(-0.0033082 -0.0158201 -0.0101094)
(-0.00102235 -0.011117 -0.00602211)
(-0.00341335 -0.0080002 -0.00341337)
(-0.00366296 -0.00617619 -0.00240823)
(-0.00386699 -0.00501082 -0.00261186)
(-0.00344699 -0.00431798 -0.00321218)
(-0.00257617 -0.00404567 -0.0035868)
(-0.00151428 -0.00412308 -0.00347238)
(-0.000662161 -0.00440442 -0.00269193)
(-0.000632347 -0.00386549 -0.000940219)
(-0.000663491 -0.00349461 -0.000626153)
(-0.000511084 -0.00403832 -0.00176241)
(0.000512484 -0.00368437 -0.00261967)
(0.00169331 -0.00353985 -0.00285247)
(0.00283174 -0.00386313 -0.00292437)
(0.00335024 -0.00455876 -0.00235988)
(0.00328077 -0.00571304 -0.00212542)
(0.00320465 -0.00758043 -0.0032016)
(0.000904125 -0.0107941 -0.00586626)
(0.00326905 -0.0156226 -0.0100503)
(-0.00889921 -0.00938847 -0.0153239)
(-0.0132611 -0.00533401 -0.0159226)
(-0.0181712 -0.0030574 -0.0181713)
(-0.02009 -0.00175544 -0.0210779)
(-0.0206068 -0.000691487 -0.0242558)
(-0.019766 0.000301838 -0.0274036)
(-0.0177057 0.00141304 -0.030258)
(-0.0144424 0.00269349 -0.0326175)
(-0.0098453 0.00419134 -0.033883)
(-0.00513997 0.00587056 -0.032918)
(0.00340847 0.00605923 -0.0323911)
(0.00835932 0.00434406 -0.0336231)
(0.0131463 0.00280169 -0.0323345)
(0.016588 0.00150502 -0.0299507)
(0.0188122 0.000413645 -0.0270885)
(0.019852 -0.000546714 -0.0239972)
(0.0195448 -0.00157974 -0.0208851)
(0.017832 -0.00286229 -0.018064)
(0.0130933 -0.00515789 -0.0159149)
(0.00886397 -0.00926557 -0.015393)
(0.000282995 -0.000133594 -0.000939309)
(0.000590528 0.000200975 -0.000236234)
(0.000888083 -0.00018324 0.000545221)
(0.00131488 -0.000651927 0.00131491)
(0.00176147 -0.000899865 0.00201601)
(0.00208002 -0.000714555 0.00256688)
(0.00222417 -0.000623985 0.00303911)
(0.00217306 -0.000559163 0.00347994)
(0.00184783 -0.000416622 0.00385347)
(0.00119052 -0.000278036 0.00403564)
(0.000358668 -0.000327899 0.00389224)
(-0.000259792 -0.000479167 0.00342555)
(-0.000451613 -0.000534655 0.00294198)
(-0.000523182 -0.000444013 0.00244636)
(-0.000525912 -0.000528692 0.00201538)
(-0.00047253 -0.000345557 0.0015199)
(-0.000397596 0.000252725 0.00103235)
(-0.000396918 0.00088232 0.000617563)
(-0.000349607 0.00111092 0.0001733)
(-0.000169025 0.0010404 -0.000376031)
(-0.000399608 -0.00160867 -0.00242178)
(-0.000309829 -0.00137227 -0.000894489)
(0.000237243 -0.00140286 0.0002548)
(0.000801122 -0.00119916 0.00080112)
(0.000998647 -0.000785985 0.000990272)
(0.0010507 -0.000829271 0.00115141)
(0.00123159 -0.00109509 0.00123008)
(0.00123272 -0.00106657 0.00122726)
(0.00102862 -0.000916575 0.00116608)
(0.00070545 -0.000820959 0.00106966)
(0.000310237 -0.000839609 0.00108073)
(-0.000138781 -0.000912329 0.00113004)
(-0.000502275 -0.000917735 0.00108875)
(-0.000546053 -0.000626918 0.000942583)
(-0.00048677 -0.000233245 0.000639843)
(-0.000422968 -0.000279125 0.000348653)
(-3.86409e-05 -0.00042033 -9.57223e-05)
(0.000452331 -0.000489555 -0.00121371)
(0.000617837 -0.000606087 -0.00262011)
(0.000495748 -0.000708736 -0.00419909)
(0.000155293 -0.000355178 -0.00235971)
(0.0010331 -0.000801323 0.000404075)
(0.000781597 -0.00184498 0.000508758)
(-0.000415879 -0.00258223 -0.000415886)
(-0.00115722 -0.00242793 -0.000615208)
(-0.000873479 -0.00250083 -0.00026864)
(-0.000285116 -0.0021803 -0.000456562)
(-0.000114292 -0.00174945 -0.000806629)
(-1.92768e-05 -0.0016769 -0.00105374)
(0.000101249 -0.00160771 -0.00124559)
(0.000144284 -0.00153276 -0.00102358)
(0.000126359 -0.00149512 -0.000669101)
(0.000140874 -0.00165677 -0.00045067)
(0.000674108 -0.00200934 -0.000346624)
(0.00123409 -0.00192741 -0.000909141)
(0.00112885 -0.00193406 -0.00124098)
(0.000193931 -0.00150067 -0.000748327)
(-0.000604883 -0.000766816 -0.000663044)
(-0.000840721 -8.5486e-05 -0.00146637)
(-0.000277223 0.000529787 -0.00396605)
(0.00292852 0.00316059 0.00983587)
(0.00538873 0.00320724 0.009931)
(0.00689433 0.0033343 0.00857988)
(0.00653019 0.00286628 0.00653019)
(0.00472817 0.00107479 0.00447067)
(0.00253235 -0.0017049 0.00241202)
(0.000986424 -0.00294712 0.000351927)
(9.07818e-06 -0.00296432 -0.000819916)
(-0.000137934 -0.00305828 -0.00157096)
(-0.000109404 -0.00294077 -0.00224543)
(-7.42074e-05 -0.00283666 -0.00180968)
(-0.00014711 -0.00273309 -0.000835547)
(-0.000614364 -0.00265084 -4.31468e-05)
(-0.00155981 -0.00222835 0.00121859)
(-0.00329718 -8.86661e-05 0.00267718)
(-0.00538696 0.00220287 0.00433333)
(-0.00681311 0.00329826 0.00627962)
(-0.00695259 0.00370261 0.00823978)
(-0.00539907 0.00371707 0.00949008)
(-0.00297128 0.00369529 0.00945458)
(0.00338536 -0.00361277 0.00817934)
(0.00690046 -0.00127589 0.0108365)
(0.00957785 0.000590728 0.0117031)
(0.0110814 0.00198875 0.0110814)
(0.0112731 0.00224283 0.00980188)
(0.0102935 0.00166638 0.00816807)
(0.00769376 0.000377838 0.00590768)
(0.00461183 -0.00161371 0.00340471)
(0.0021875 -0.00333119 0.000890255)
(0.000472736 -0.00391859 -0.00111044)
(-0.000941306 -0.00363965 -0.00048579)
(-0.00277925 -0.00263601 0.00180185)
(-0.00530092 -0.000834886 0.00417671)
(-0.00807438 0.000928518 0.00635548)
(-0.00994665 0.00220843 0.00803922)
(-0.0109195 0.00297515 0.00940895)
(-0.0109492 0.00272766 0.0107423)
(-0.00962447 0.00151723 0.011555)
(-0.00699365 -0.000292665 0.0109358)
(-0.00344767 -0.00267397 0.00851752)
(0.00305762 -0.00909509 0.000921026)
(0.00759169 -0.00513974 0.00605653)
(0.00972107 -0.00268173 0.00942674)
(0.0110422 -0.000337187 0.0110422)
(0.0113965 0.00134627 0.0112277)
(0.0106713 0.00220892 0.0104399)
(0.00895843 0.00238035 0.00907429)
(0.00670691 0.00188574 0.00739306)
(0.00404397 0.000685508 0.00495595)
(0.00151918 -0.000970541 0.00239267)
(-0.00114143 -0.000813567 0.00263461)
(-0.00363347 0.000886525 0.00526104)
(-0.00630204 0.00200483 0.00747416)
(-0.0086598 0.00258139 0.00910468)
(-0.0103981 0.00276001 0.0103678)
(-0.0112265 0.00234181 0.01112)
(-0.0109789 0.000841368 0.0110755)
(-0.00972089 -0.00162717 0.00964402)
(-0.00762081 -0.00427202 0.00645672)
(-0.00308933 -0.00845597 0.00148499)
(0.00154312 -0.0140109 -0.00416234)
(0.0072643 -0.00769999 0.00203518)
(0.00860042 -0.00429848 0.00659844)
(0.00943795 -0.00158019 0.00943794)
(0.00925045 0.000549259 0.0107259)
(0.00844244 0.00191353 0.0107486)
(0.0072351 0.00219721 0.0100906)
(0.00570336 0.00156008 0.00920408)
(0.00378382 0.000525757 0.0082935)
(0.00154919 -0.000462361 0.00726464)
(-0.00118149 -0.000383573 0.007072)
(-0.00345832 0.000785802 0.00803684)
(-0.00543378 0.00192781 0.00905704)
(-0.00709417 0.00261059 0.0100356)
(-0.008371 0.00248662 0.0107404)
(-0.00916291 0.00138775 0.0108016)
(-0.00936525 -0.000703664 0.00969503)
(-0.00856582 -0.00345038 0.00699212)
(-0.00724221 -0.00703442 0.00257006)
(-0.00157258 -0.013536 -0.00361291)
(-0.000764381 -0.0169915 -0.00797059)
(0.00502863 -0.00934093 -0.00192806)
(0.00511366 -0.00451932 0.00279263)
(0.00579323 -0.000249304 0.00579321)
(0.00567095 0.00286626 0.00738131)
(0.00517289 0.00457906 0.00783645)
(0.00451278 0.00528495 0.00759765)
(0.00370058 0.00544853 0.00707717)
(0.00267833 0.00543858 0.00673965)
(0.00114262 0.00539113 0.00670384)
(-0.0011713 0.00548156 0.00670141)
(-0.00272599 0.00557275 0.00674427)
(-0.00371309 0.00562771 0.00714424)
(-0.00457403 0.00551538 0.00773246)
(-0.00523657 0.0049454 0.00808774)
(-0.00569894 0.00347264 0.00770097)
(-0.00577837 0.000620763 0.00621369)
(-0.00505378 -0.00379029 0.00325857)
(-0.00502921 -0.00881221 -0.00143697)
(0.000732966 -0.0166309 -0.00763952)
(-0.00406623 -0.0157593 -0.0119616)
(-0.000992863 -0.0100507 -0.00746785)
(-0.00240822 -0.00617619 -0.00366299)
(-0.00139958 -0.00374661 -0.0013996)
(-0.000721604 -0.00213282 -0.000576969)
(0.000270943 -0.00127927 -3.72534e-05)
(0.000634818 -0.00124349 -0.000741303)
(0.000875454 -0.00163237 -0.00133867)
(0.000744948 -0.00184092 -0.00133234)
(3.5764e-05 -0.000778441 -0.000384126)
(-0.000806786 -0.000638099 -1.07119e-05)
(-0.0014255 -0.00156695 -0.000791809)
(-0.00132136 -0.00131509 -0.000795192)
(-0.000983185 -0.000884869 -0.000278629)
(-0.000455867 -0.000817303 0.000361838)
(0.000328075 -0.00163373 0.000205311)
(0.00125693 -0.00329666 -0.000966523)
(0.00222893 -0.00577094 -0.00322603)
(0.000879318 -0.00972619 -0.00716574)
(0.00402881 -0.015536 -0.0118419)
(-0.0105653 -0.00923628 -0.0172121)
(-0.0156538 -0.00441322 -0.0178511)
(-0.0210779 -0.00175544 -0.02009)
(-0.023095 -0.000199935 -0.023095)
(-0.0235077 0.00115418 -0.0263951)
(-0.0225279 0.00242175 -0.0297841)
(-0.0203218 0.00380086 -0.0330541)
(-0.0168687 0.00537712 -0.0360023)
(-0.011779 0.00722212 -0.0378096)
(-0.00614759 0.00933955 -0.0371042)
(0.00465941 0.00950522 -0.0366774)
(0.0104524 0.00730261 -0.0374525)
(0.0156857 0.00541105 -0.0355983)
(0.0192564 0.00381733 -0.0326093)