/*--------------------------------*- C++ -*----------------------------------*\
| =========                 |                                                 |
| \\      /  F ield         | OpenFOAM: The Open Source CFD Toolbox           |
|  \\    /   O peration     | Version:  1.7.1                                 |
|   \\  /    A nd           | Web:      www.OpenFOAM.com                      |
|    \\/     M anipulation  |                                                 |
\*---------------------------------------------------------------------------*/
FoamFile
{
    version     2.0;
    format      ascii;
    class       surfaceScalarField;
    location    "1000";
    object      phi;
}
// * * * * * * * * * * * * * * * * * * * * * * * * * * * * * * * * * * * * * //

dimensions      [1 0 -1 0 0 0 0];

internalField   nonuniform List<scalar> 
11200
(
0.000869356
-0.00173862
0.000869355
0.00150731
-0.00145359
0.000815726
0.00201215
-0.00121863
0.000713872
0.00239053
-0.00100562
0.000627309
0.00261967
-0.000801674
0.000572585
0.00262458
-0.000558693
0.000553821
0.00233876
-0.00028687
0.000572698
0.00177131
-4.24868e-05
0.000609908
0.00102499
0.000109006
0.00063727
0.000198912
0.000179359
0.000646679
-0.000554345
0.000109408
0.000643812
-0.0011005
-7.81426e-05
0.000624279
-0.00143312
-0.000267008
0.000599619
-0.00163357
-0.000362208
0.000562656
-0.0016685
-0.000517413
0.000552371
-0.00148709
-0.000745188
0.000563816
-0.00116742
-0.000912633
0.000593024
-0.000786779
-0.00102522
0.00064463
-0.000410929
-0.00108734
0.000711542
-0.00120613
0.000795244
-1.33984e-05
-0.0017117
-1.34041e-05
-1.65803e-05
-0.0016305
0.000180191
3.76517e-05
-0.0014455
0.00017271
0.00018325
-0.00125867
0.000107523
0.00036776
-0.00104093
5.4794e-05
0.000489763
-0.000710788
3.01175e-05
0.000477847
-0.000331145
5.61899e-05
0.000395837
-9.94332e-05
0.000138936
0.00025828
3.17607e-05
0.000214764
0.000124069
7.1146e-05
0.000242379
-2.04542e-05
2.20342e-05
0.000231858
-0.000231605
-9.86953e-05
0.000231682
-0.000419099
-0.000306022
0.000226505
-0.000466842
-0.000493188
0.000178732
-0.00039872
-0.000682064
9.65518e-05
-0.000235642
-0.000925421
1.71918e-05
-5.23715e-05
-0.00107453
-2.13278e-05
7.22942e-05
-0.00110639
-4.34575e-05
0.000115006
-0.00103375
-9.62673e-05
-0.000875091
-0.000215993
-0.000147766
-0.00141592
-0.00014778
-0.00053341
-0.00136555
0.000120891
-0.000814441
-0.00131317
0.000148853
-0.000910122
-0.00126802
0.000105132
-0.000870958
-0.00112535
4.53201e-05
-0.000756304
-0.000797969
-2.74389e-05
-0.000510319
-0.000479122
-9.80032e-05
-0.000155735
-0.000308705
-0.00014532
0.000171407
-0.000160156
-0.000135245
0.000357602
-1.15325e-05
-0.000103545
0.000522256
-7.24781e-05
-7.01662e-05
0.000653011
-0.000149872
-7.95972e-05
0.000727063
-0.000239117
-0.000140968
0.000825639
-0.000391083
-0.000200679
0.000995084
-0.000610307
-0.000241186
0.00108586
-0.000721155
-0.000295013
0.000950756
-0.000575382
-0.000364002
0.00059428
-0.000354649
-0.000395215
0.00014145
-0.000158433
-0.000422453
-0.00013027
-0.000603342
0.00118285
-0.00378143
0.00118284
0.00154
-0.00282821
0.00110572
0.00133549
-0.00208316
0.000974723
0.000795168
-0.00155456
0.000827048
0.000158666
-0.00115863
0.000669909
-0.000334234
-0.000742055
0.000437049
-0.000521211
-0.000399391
0.000107266
-0.000401206
-0.000250527
-0.000178182
-4.8787e-05
-0.000125795
-0.000386793
0.000341807
3.52656e-05
-0.000437414
0.000689559
-4.92565e-05
-0.000370991
0.00103331
-0.000177864
-0.00031577
0.00129969
-0.000252266
-0.000253243
0.00125204
-0.000198394
-0.000145048
0.000717037
-0.000119067
4.37683e-05
-0.000185695
-8.04209e-05
0.000262007
-0.00106265
-0.000163894
0.000465509
-0.00152392
-0.000633758
0.000740494
-0.00124396
-0.00149126
0.001053
-0.00263345
0.00125935
0.00132364
-0.00642873
0.00132365
0.00203922
-0.00506144
0.00151766
0.00224527
-0.00388109
0.00159191
0.00209384
-0.00298655
0.00158348
0.00176022
-0.00233057
0.00150563
0.00140718
-0.00173573
0.00134679
0.00102305
-0.00109177
0.00107656
0.00058479
-0.000530286
0.000718051
0.000252817
-0.000135683
0.000341861
0.000269274
3.5553e-05
-1.67635e-05
0.00038241
-3.97123e-06
-0.000158439
0.000314171
-8.93386e-05
-2.03007e-05
-0.000182652
-0.000181878
0.00042643
-0.00102054
-0.000248229
0.000887739
-0.00186308
-0.000455037
0.00117857
-0.00244197
-0.000901856
0.00140039
-0.00261092
-0.00159843
0.00160352
-0.00230942
-0.00264805
0.0017128
-0.00144313
-0.00405181
0.00169426
-0.00560344
0.00152685
0.0007168
-0.00786234
0.000716793
0.000922982
-0.00650095
0.0012333
0.000783537
-0.00531617
0.00157451
0.00048193
-0.00447833
0.00179339
0.000114977
-0.00387246
0.00190884
-0.000201152
-0.00334881
0.00192921
-0.000364854
-0.00280699
0.00187893
-0.000413343
-0.00223612
0.00175433
-0.000349671
-0.00175396
0.00155461
-0.000197627
-0.00138647
0.00127
-0.000135916
-0.00114504
0.00107938
-0.00024876
-0.00119101
0.00121455
-0.000476762
-0.00146775
0.00151391
-0.000716939
-0.00176357
0.00175554
-0.000978269
-0.00209865
0.00190494
-0.00119299
-0.00262656
0.00193941
-0.00128334
-0.00334081
0.00183272
-0.0012096
-0.00434703
0.00162522
-0.000829152
-0.00572463
0.00129235
-0.0072342
0.000801594
0.000161874
-0.0081861
0.000161856
-0.000233624
-0.00702894
0.00092347
-0.000792225
-0.00607827
0.00132069
-0.0012637
-0.00551741
0.00151054
-0.00156502
-0.00514624
0.0015751
-0.00165526
-0.00486143
0.00160286
-0.00154369
-0.00457923
0.00166066
-0.00127977
-0.0042605
0.00176045
-0.000970843
-0.00391371
0.00185082
-0.000709521
-0.0035485
0.0019007
-0.000477083
-0.00325423
0.00187674
-0.00016056
-0.00330951
0.00180197
0.000169576
-0.00360412
0.00180622
0.0004024
-0.00383532
0.00183891
0.000507051
-0.00403067
0.00182735
0.000429122
-0.00428889
0.00174025
0.000198743
-0.00469461
0.00158416
-0.000145176
-0.00533501
0.00133187
-0.000343063
-0.00640995
0.00088318
-0.00769864
0.00012135
-0.000401936
-0.00738223
-0.000401955
-0.00130673
-0.00655926
0.000435101
-0.00209203
-0.00601194
0.000718966
-0.00260131
-0.0057847
0.000776571
-0.00277839
-0.00567591
0.000706753
-0.00264592
-0.00560431
0.000610422
-0.00226195
-0.00552028
0.000557087
-0.00173677
-0.00538375
0.000598069
-0.00122583
-0.0051794
0.000754764
-0.000837479
-0.00492208
0.000985229
-0.000418896
-0.00473242
0.0010596
0.000228086
-0.00481357
0.000857075
0.000867773
-0.00500338
0.000759564
0.0013613
-0.00509146
0.000762608
0.00164204
-0.00511311
0.000801697
0.00164709
-0.00514084
0.000846881
0.00134755
-0.00523965
0.000844568
0.000792648
-0.00548484
0.000704722
0.000160803
-0.00610061
0.000322486
-0.00700621
-0.00053165
-0.00118218
-0.00501787
-0.0011822
-0.00254799
-0.00459595
-0.000597503
-0.00350115
-0.00447417
-0.000584609
-0.00399362
-0.00457021
-0.000722007
-0.00404691
-0.00472026
-0.000902347
-0.00371269
-0.00487618
-0.00106233
-0.00306998
-0.00500273
-0.00116024
-0.00223773
-0.00506708
-0.0011489
-0.0014073
-0.00503684
-0.000972965
-0.000789593
-0.00490228
-0.000637495
-0.000151026
-0.00481116
-0.000559813
0.000822754
-0.00486977
-0.000917574
0.00176006
-0.00489529
-0.00104539
0.00247807
-0.00480031
-0.00100916
0.00289919
-0.00463492
-0.0008993
0.00296617
-0.00444517
-0.000762653
0.00263564
-0.00427529
-0.000633833
0.00190566
-0.00417552
-0.000579361
0.000838287
-0.00433255
-0.000700699
-0.00479138
-0.00137656
-0.00250893
-0.00250895
-0.00432713
-0.00277773
-0.00536986
-0.00343141
-0.00583386
-0.00410618
-0.00578734
-0.00476674
-0.0052844
-0.00537908
-0.0043799
-0.0059072
-0.00315722
-0.00628972
-0.00177507
-0.00641895
-0.000609606
-0.00606772
0.000474005
-0.00589475
0.00194577
-0.00634152
0.00318869
-0.00613819
0.00409205
-0.00570364
0.00461834
-0.00516119
0.00473636
-0.00456318
0.0044088
-0.00394773
0.00359236
-0.00335907
0.00209377
-0.00283396
-0.00269762
0.000815724
-0.00145358
0.0015073
0.00147909
-0.00132664
0.00147909
0.00200698
-0.00117645
0.00136252
0.00239998
-0.000996369
0.00123075
0.00263508
-0.000788436
0.00112597
0.00264738
-0.000531006
0.00107256
0.00237189
-0.000237898
0.00108609
0.00181426
9.42176e-06
0.00115809
0.00105451
0.000169397
0.00122759
0.00018222
0.000254994
0.00126395
-0.000624614
0.000183897
0.00126671
-0.00117189
-5.37209e-05
0.00122526
-0.00150829
-0.00021079
0.00114681
-0.0016799
-0.000317977
0.00105226
-0.00169928
-0.000429477
0.00100125
-0.00152196
-0.000605026
0.000991569
-0.0012025
-0.000747623
0.00102122
-0.000807257
-0.000831898
0.00108134
-0.000395451
-0.000853393
0.00115317
-0.000843745
0.00124357
0.000180192
-0.0016305
-1.65868e-05
0.000328051
-0.00162227
0.000328049
0.000452944
-0.00152202
0.000393465
0.000586661
-0.00138025
0.000357756
0.000725856
-0.00117498
0.000302193
0.000819597
-0.000860012
0.000265413
0.000803136
-0.00044271
0.000277467
0.000642736
-5.13792e-05
0.000360117
0.000407148
0.000139001
0.000480714
0.00017115
0.000180261
0.000553069
-5.88536e-05
8.78541e-05
0.00055787
-0.000335324
-6.43748e-05
0.00051879
-0.000578836
-0.00018666
0.000445877
-0.000680451
-0.000383861
0.000346239
-0.000638895
-0.000593021
0.000218558
-0.000504517
-0.000835205
0.000113026
-0.0003522
-0.00096464
4.34119e-05
-0.000224901
-0.000989462
-1.31504e-05
-0.000130448
-0.000933202
-0.000110875
-0.000905405
-0.000284747
0.000120896
-0.00136555
-0.000533427
3.20479e-05
-0.0014444
3.20396e-05
-0.000103215
-0.00143571
0.000197935
-0.000191438
-0.00139351
0.000206711
-0.000208305
-0.00126727
0.000154552
-0.000157819
-0.00100595
6.80532e-05
-2.08518e-05
-0.000634675
-4.29955e-05
0.000190351
-0.000285476
-0.00012244
0.000336502
-3.54816e-05
-0.000106944
0.000383063
7.90468e-05
-4.89287e-05
0.000387463
7.95397e-06
5.30559e-06
0.000371296
-0.000119153
-8.67114e-06
0.000383178
-0.000238696
-0.000100824
0.000412462
-0.000408941
-0.000204885
0.000515749
-0.000678973
-0.000258508
0.000544297
-0.000805328
-0.000353409
0.000425799
-0.000736984
-0.000473119
0.000211942
-0.000586329
-0.000584441
1.95961e-05
-0.000403137
-0.00076012
-0.000182275
-0.00130684
0.00110571
-0.0028282
0.00154
0.00153455
-0.00230184
0.00153455
0.00146696
-0.00177997
0.00138678
0.00108728
-0.00134819
0.00116156
0.00063032
-0.00104814
0.000907838
0.000259762
-0.00080719
0.000608904
6.67835e-05
-0.000581565
0.000247156
0.000105431
-0.000415522
-8.67866e-05
0.000294245
-0.000245999
-0.000365108
0.000481882
-4.65884e-05
-0.000499444
0.000615266
-2.32492e-05
-0.000473196
0.000759233
-0.000165314
-0.000413593
0.000866811
-0.000278695
-0.000320834
0.000760016
-0.000277073
-0.000170126
0.000328606
-0.000256802
5.30183e-05
-0.00035548
-0.000163138
0.000303919
-0.00103892
-0.000179629
0.00059163
-0.00136479
-0.000478858
0.000958981
-0.00107449
-0.000960207
0.0013199
-0.00150107
0.00150379
0.00151766
-0.00506143
0.00203922
0.00239145
-0.00404942
0.00239146
0.00275498
-0.00304974
0.0024982
0.00271922
-0.00214379
0.00241491
0.00242522
-0.00144958
0.00220114
0.0019985
-0.000908224
0.00187461
0.00150622
-0.000444913
0.00143223
0.000975383
-6.69703e-05
0.00090035
0.000576245
0.00012368
0.000371311
0.000372893
0.000212763
-7.27848e-05
0.000266594
0.00018426
-0.000259674
-2.24806e-05
0.000106646
-3.20816e-06
-0.000603608
0.000128478
0.000600367
-0.00137011
0.000192922
0.00118425
-0.00219827
0.000115376
0.00163456
-0.00276452
-0.000249008
0.00205255
-0.00289683
-0.000889794
0.00244604
-0.00252736
-0.0018333
0.0026978
-0.00159317
-0.00291886
0.00271873
-0.00402422
0.00245683
0.0012333
-0.00650093
0.000922974
0.00186933
-0.00532148
0.00186933
0.00205628
-0.00410898
0.00244678
0.00194346
-0.00298429
0.00274671
0.00163668
-0.00207713
0.00284318
0.00122964
-0.00133242
0.00276046
0.000822467
-0.000684898
0.0025261
0.000469929
-0.000140404
0.0021803
0.00015291
0.000261699
0.00173361
-4.10609e-05
0.000423403
0.00125331
-0.000238872
0.000450207
0.00101122
-0.000656755
0.000398634
0.00134043
-0.00120761
0.000300463
0.00189278
-0.00172497
9.81977e-05
0.00236764
-0.0021313
-0.000290323
0.00271698
-0.00236906
-0.00097165
0.00289981
-0.00235029
-0.00194265
0.0028668
-0.00202937
-0.00313796
0.00260894
-0.00129625
-0.00441935
0.00205971
-0.00567597
0.00115708
0.000923476
-0.00702893
-0.000233643
0.00114558
-0.00576571
0.00114557
0.000959576
-0.00455922
0.00195692
0.000594744
-0.00350117
0.00239225
0.000175549
-0.00268602
0.00260317
-0.000209934
-0.00203457
0.00269048
-0.000488144
-0.00148806
0.00274203
-0.000608885
-0.00100786
0.00274863
-0.000589044
-0.000568745
0.00266141
-0.000561848
-0.000195007
0.0024919
-0.000586254
8.25732e-06
0.00234309
-0.000699698
-0.000106104
0.00242014
-0.000806459
-0.000424439
0.00263788
-0.000907666
-0.000786554
0.00282486
-0.00105409
-0.00123665
0.00292009
-0.00123169
-0.0018537
0.00279988
-0.00138253
-0.0027138
0.00250613
-0.00138646
-0.00380691
0.00200474
-0.00103121
-0.00503662
0.00114518
-0.00635599
-0.000229852
0.000435112
-0.00655925
-0.00130676
0.000228939
-0.00535337
0.000228923
-0.000318391
-0.0043153
0.00102237
-0.000815385
-0.00356442
0.00133682
-0.00116161
-0.00301107
0.00137803
-0.00131211
-0.00257904
0.00130539
-0.00129694
-0.00221587
0.00126973
-0.00119446
-0.00188394
0.00137168
-0.00106466
-0.00155948
0.0016157
-0.000912843
-0.00124153
0.00187993
-0.000688007
-0.00109409
0.0019371
-0.000469502
-0.00124036
0.00177282
-0.000255479
-0.00154717
0.00166826
-6.0524e-05
-0.00185979
0.00164088
3.42879e-05
-0.00215054
0.00162077
-5.18641e-05
-0.00251728
0.0015966
-0.000303246
-0.00305056
0.00143269
-0.00060722
-0.00378974
0.000991515
-0.000624506
-0.0048043
0.000107437
-0.006035
-0.00147715
-0.000597494
-0.00459594
-0.00254802
-0.00143018
-0.00368798
-0.0014302
-0.0022144
-0.00310833
-0.00100733
-0.00270976
-0.0028111
-0.000979947
-0.00287235
-0.00261879
-0.00113202
-0.00272697
-0.00248196
-0.00130478
-0.00233787
-0.00236928
-0.00139591
-0.00179561
-0.0022607
-0.00131439
-0.00125222
-0.00213302
-0.00094281
-0.000930559
-0.00192733
-0.000273353
-0.000528895
-0.00190043
-0.000155128
0.000113098
-0.00208309
-0.000716837
0.000826005
-0.00221607
-0.00108939
0.0013722
-0.00230105
-0.0011141
0.00168328
-0.00236619
-0.000994724
0.00171212
-0.00244866
-0.000860111
0.00142828
-0.00258996
-0.000810592
0.000888502
-0.00283363
-0.0009957
0.000353698
-0.00338125
-0.00158895
-0.00425729
-0.00280058
-0.00277772
-0.00432716
-0.00462169
-0.00462171
-0.0057155
-0.0054459
-0.00624312
-0.00638963
-0.00627083
-0.00735778
-0.00584356
-0.00828827
-0.00499982
-0.00912018
-0.00379309
-0.00975712
-0.00229741
-0.0100476
-0.000605194
-0.00968724
0.00110928
-0.00950963
0.00262829
-0.0099436
0.00383191
-0.00955785
0.00467636
-0.00884912
0.00514489
-0.00799589
0.00521185
-0.00707877
0.00483879
-0.00616462
0.00397305
-0.00532694
0.00242021
-0.00466237
-0.0045347
0.00071387
-0.00121863
0.00201214
0.00136252
-0.00117645
0.00200697
0.00191258
-0.00110004
0.00191257
0.0023392
-0.000976106
0.00178029
0.00260677
-0.000797053
0.00165549
0.00265111
-0.000548096
0.00157634
0.00240658
-0.000245011
0.00157563
0.00186464
3.33307e-05
0.00166669
0.00108386
0.000231565
0.00177677
0.000146827
0.000358397
0.00184255
-0.000733024
0.000306876
0.00183965
-0.00128874
2.31723e-05
0.00175777
-0.00159862
-0.000162822
0.00161952
-0.0017314
-0.000271057
0.00145611
-0.00171959
-0.000351351
0.00134081
-0.00152339
-0.000498891
0.00129429
-0.00118547
-0.000620081
0.00130342
-0.000769263
-0.000679655
0.00134482
-0.00035022
-0.000657455
0.00139161
-0.000566478
0.00145984
0.000172708
-0.00144549
3.76451e-05
0.000393466
-0.00152202
0.00045294
0.000593219
-0.00149947
0.000593217
0.000771763
-0.00140537
0.000608546
0.000923739
-0.00122054
0.000573756
0.00101721
-0.000914344
0.000538227
0.000996797
-0.000489715
0.000542584
0.000800914
-3.69628e-05
0.000626271
0.000495042
0.000226117
0.000791996
0.000175347
0.000306535
0.000924581
-0.000120317
0.000205439
0.00095493
-0.00043917
3.46945e-07
0.000860451
-0.00070821
-0.000139438
0.000691523
-0.00084213
-0.000303879
0.000512984
-0.000800128
-0.000519625
0.000344845
-0.000660284
-0.000744601
0.000218921
-0.000494233
-0.000868516
0.000125831
-0.000333845
-0.00089329
4.01348e-05
-0.000182679
-0.000844405
-7.50565e-05
-0.000758734
-0.000275143
0.000148856
-0.00131317
-0.000814455
0.00019794
-0.00143571
-0.000103223
0.000171189
-0.00144586
0.000171184
0.000127327
-0.00140762
0.000252908
0.000112925
-0.00129405
0.000242525
0.000150564
-0.00106352
0.000179631
0.000250669
-0.000720269
8.74654e-05
0.000395065
-0.000315217
1.14028e-05
0.000459336
2.7783e-05
2.70788e-05
0.000421371
0.000185394
0.000110132
0.000330035
0.000127648
0.000174397
0.000219234
-4.48265e-05
0.000147279
0.000174469
-0.000211685
1.61757e-05
0.000172248
-0.000391882
-0.000114666
0.00023795
-0.000659811
-0.000184015
0.00026331
-0.000827238
-0.000296109
0.000199112
-0.000824916
-0.000452484
9.79915e-05
-0.000738959
-0.000637606
3.36282e-05
-0.000608368
-0.000931743
-0.000389265
-0.00164263
0.000974721
-0.00208315
0.00133548
0.00138678
-0.00177996
0.00146695
0.00138577
-0.00144369
0.00138577
0.00111377
-0.00115521
0.00118127
0.000763109
-0.000971288
0.000935825
0.000479905
-0.000844251
0.000672884
0.000328803
-0.000704499
0.000382508
0.000355028
-0.000522135
9.3904e-05
0.000479754
-0.000276359
-0.000185717
0.000582923
-4.96696e-05
-0.000367586
0.000596145
2.9084e-05
-0.000387887
0.000636812
-0.000160292
-0.000338813
0.000677597
-0.000307554
-0.000265764
0.000572624
-0.000326774
-0.000130266
0.000242638
-0.000339402
6.26085e-05
-0.000273598
-0.000265989
0.000258927
-0.00080306
-0.000206732
0.000502936
-0.00105638
-0.000332356
0.000805754
-0.000829472
-0.000571737
0.00105645
-0.000786162
0.00107134
0.00159191
-0.00388108
0.00224527
0.0024982
-0.00304974
0.00275499
0.00291711
-0.00228147
0.00291712
0.00292825
-0.00154975
0.00279839
0.0026399
-0.000981618
0.00249989
0.00217653
-0.000595994
0.00208978
0.00164491
-0.000333345
0.00159273
0.0011283
-0.000135924
0.00103075
0.000736599
1.79545e-05
0.000468691
0.000479005
0.000122231
1.28807e-05
0.000254387
0.000156024
-0.000162025
-0.000111743
8.65578e-05
0.000116046
-0.000672285
0.000135278
0.000718056
-0.00137452
0.000260985
0.00129872
-0.00213393
0.000254696
0.00179989
-0.00269361
3.42631e-05
0.00231201
-0.00283713
-0.000435059
0.00281794
-0.00249068
-0.00113543
0.00315445
-0.00160962
-0.00191465
0.00318061
-0.0027608
0.00282187
0.00157451
-0.00531616
0.00078353
0.00244678
-0.00410897
0.00205628
0.00284907
-0.00308604
0.00284907
0.00289086
-0.00208443
0.0032396
0.00265911
-0.00123048
0.00332381
0.00223476
-0.000569244
0.00315808
0.00173014
-0.000115935
0.00281332
0.00118271
0.000247355
0.00234447
0.000621661
0.000520873
0.00179172
0.000126917
0.000643149
0.00122711
-0.000346952
0.000670071
0.000971013
-0.000958106
0.000619391
0.00141873
-0.00165692
0.000616525
0.00211034
-0.00231018
0.000580184
0.0027017
-0.00281714
0.000320664
0.00315798
-0.00306075
-0.000264424
0.00344211
-0.00297684
-0.00111445
0.00346227
-0.00252064
-0.00212911
0.00314641
-0.00161632
-0.00315864
0.00239937
-0.00438709
0.00116703
0.00132069
-0.00607826
-0.000792242
0.00195693
-0.00455922
0.000959565
0.00211321
-0.00339862
0.0021132
0.00195432
-0.00233967
0.00280637
0.00161141
-0.00148044
0.00319603
0.00114437
-0.000765337
0.00335361
0.000586209
-0.000122601
0.00330684
0.000109072
0.000286387
0.00318673
-0.000231772
0.000564031
0.00295908
-0.000494423
0.000752599
0.00264507
-0.000779708
0.000822191
0.00247623
-0.00116473
0.000758153
0.00266639
-0.00157623
0.000653373
0.00301252
-0.0019342
0.000446731
0.00331628
-0.0022462
6.2127e-05
0.00349061
-0.00242247
-0.000707499
0.00341922
-0.00242206
-0.00160671
0.00299797
-0.00214553
-0.00264779
0.00224688
-0.00142952
-0.00377536
0.00104587
-0.00531282
-0.000733653
0.000718969
-0.00601194
-0.00209206
0.00102238
-0.00431529
-0.000318409
0.000881493
-0.00311685
0.00088148
0.000556232
-0.00218582
0.00150823
0.000167522
-0.00145514
0.00174144
-0.000180691
-0.000891494
0.00177976
-0.000425881
-0.000486178
0.00187849
-0.000580994
-0.000223567
0.00203673
-0.000685493
-7.2235e-06
0.00229144
-0.000845114
0.000293193
0.00249894
-0.00100538
0.000456334
0.00246321
-0.00108279
0.00025206
0.00235631
-0.0011476
5.71004e-05
0.00232933
-0.00118006
-0.000187658
0.00230772
-0.00120633
-0.000498356
0.00220751
-0.00130201
-0.0010009
0.00198567
-0.00140347
-0.00169614
0.00162357
-0.00134472
-0.00259461
0.00087958
-0.000880323
-0.00371997
-0.000412352
-0.00542316
-0.00224714
-0.000584605
-0.00447416
-0.00350118
-0.00100732
-0.00310833
-0.00221443
-0.00144041
-0.00225067
-0.00144042
-0.00173516
-0.00173492
-0.00113608
-0.00184815
-0.00135016
-0.00112399
-0.00178878
-0.00104305
-0.00121259
-0.00161415
-0.00077847
-0.00127824
-0.00139153
-0.000531879
-0.00122869
-0.0012406
-0.000250834
-0.000850128
-0.00115925
0.000148363
-0.000209876
-0.00088255
0.000172455
-0.000147948
-0.000523581
-0.000209131
-0.000614614
-8.81877e-05
-0.000520964
-0.000946716
0.000300763
-0.000758919
-0.000931785
0.00059507
-0.000978754
-0.000808634
0.000744266
-0.00122838
-0.000781827
0.000710299
-0.00155611
-0.00091666
0.000527033
-0.00200547
-0.00140157
0.000378592
-0.00280779
-0.00235269
-0.00410299
-0.00374215
-0.00343141
-0.00536989
-0.00544589
-0.00571552
-0.0065712
-0.00657121
-0.00709522
-0.00760049
-0.00711046
-0.00869266
-0.00666267
-0.00977907
-0.00577411
-0.0107872
-0.0044608
-0.0116023
-0.00271663
-0.0120426
-0.000535756
-0.0117197
0.00168229
-0.0115552
0.00341441
-0.0118848
0.00470438
-0.0113688
0.00558708
-0.0104907
0.00607523
-0.00946278
0.00614838
-0.00838029
0.0057653
-0.00733762
0.00484451
-0.00641161
0.00308878
-0.00571442
-0.0055489
0.000627307
-0.00100561
0.00239052
0.00123074
-0.000996365
0.00239997
0.0017803
-0.000976105
0.00233919
0.00223184
-0.000903032
0.00223183
0.00253593
-0.00076079
0.00211223
0.00262558
-0.000536404
0.00202311
0.00243086
-0.000243649
0.002014
0.00191854
5.68314e-05
0.00212217
0.00110986
0.000303176
0.00228225
8.14623e-05
0.000474298
0.00239662
-0.000891961
0.000445506
0.00236752
-0.00146064
0.00011438
0.00221203
-0.00173767
-9.37888e-05
0.00199033
-0.00181964
-0.000207021
0.0017451
-0.00175521
-0.00027889
0.00155528
-0.00152447
-0.000395316
0.00145889
-0.00116425
-0.000487061
0.0014303
-0.000736789
-0.000516637
0.00143402
-0.000329967
-0.000456239
0.00144105
-0.000348016
0.0014779
0.000107522
-0.00125867
0.000183241
0.000357757
-0.00138025
0.000586655
0.000608549
-0.00140537
0.000771758
0.000832885
-0.00135164
0.000832881
0.00101461
-0.00119515
0.000826441
0.00112741
-0.000915518
0.00080457
0.00112154
-0.000512602
0.000817405
0.000922238
-3.30328e-05
0.000915412
0.000558255
0.00032711
0.001132
0.000154366
0.000458421
0.00134429
-0.000210809
0.000360694
0.00140487
-0.000564644
9.02722e-05
0.00123837
-0.000840091
-8.19489e-05
0.000955119
-0.000977657
-0.000243258
0.000686789
-0.000917084
-0.000475209
0.000480603
-0.000758545
-0.00066935
0.000334441
-0.000562393
-0.000781455
0.000224104
-0.000360396
-0.000795952
0.000117485
-0.000153267
-0.000723038
-1.53601e-05
-0.000572693
-0.000203716
0.000105135
-0.00126802
-0.000910132
0.000206715
-0.00139351
-0.000191443
0.000252911
-0.00140762
0.000127324
0.000266035
-0.00137782
0.000266033
0.000283425
-0.00127672
0.000306763
0.000332521
-0.00108015
0.000295198
0.000426283
-0.000778626
0.000259738
0.000538388
-0.000363222
0.000229472
0.000563989
5.68676e-05
0.000271671
0.000463336
0.000277251
0.000391902
0.000297621
0.00023078
0.000469979
0.000107407
1.66662e-05
0.000411069
1.74593e-05
-0.000192998
0.000217158
2.40482e-06
-0.0003776
3.47232e-05
3.74812e-05
-0.000636269
-5.80226e-05
5.87796e-05
-0.000808899
-0.000177838
3.78262e-05
-0.000875418
-0.000337537
1.1354e-05
-0.000851212
-0.000555836
2.46981e-05
-0.000771157
-0.000896927
-0.000585714
-0.00160487
0.000827048
-0.00155455
0.000795156
0.00116156
-0.00134818
0.00108727
0.00118127
-0.00115521
0.00111377
0.00100068
-0.00101655
0.00100068
0.000761555
-0.000947423
0.000845713
0.000569536
-0.000900197
0.000684989
0.000474244
-0.000807956
0.000507148
0.000506947
-0.000611409
0.000309383
0.000604806
-0.00031989
9.31539e-05
0.000664048
-6.99223e-05
-7.96986e-05
0.000612319
1.95135e-05
-0.000124933
0.000553135
-0.000162964
-0.000100022
0.000530709
-0.000378711
-5.76397e-05
0.00042542
-0.000440384
3.78012e-05
0.000180968
-0.000467252
0.000138054
-0.000179904
-0.000424923
0.000235845
-0.000564825
-0.000335821
0.00034829
-0.000779056
-0.000328549
0.000497363
-0.000654451
-0.000409374
0.000570124
-0.000485823
0.000317077
0.00158348
-0.00298654
0.00209384
0.0024149
-0.00214378
0.00271923
0.00279838
-0.00154975
0.00292825
0.00281092
-0.00104154
0.00281092
0.00254142
-0.000681783
0.00250381
0.00210326
-0.000479959
0.00210775
0.00160674
-0.000381903
0.00166323
0.00116367
-0.000327807
0.00119023
0.000856514
-0.00025715
0.00071309
0.000625548
-0.000110874
0.00028477
0.000353865
1.98959e-05
0.000109243
-2.70312e-05
2.80456e-06
0.000331146
-0.000537621
1.65254e-05
0.000833388
-0.00115643
0.000143182
0.00133395
-0.00182639
0.000211528
0.00179108
-0.00235118
0.000126895
0.00228502
-0.00252588
-0.000131456
0.00278832
-0.00227035
-0.000565648
0.00313607
-0.00152789
-0.00112242
0.00315124
-0.00190828
0.0027165
0.00179338
-0.00447832
0.000481925
0.0027467
-0.00298428
0.00194346
0.00323959
-0.00208443
0.00289087
0.0033627
-0.00128775
0.00336271
0.00318126
-0.000637203
0.00346067
0.00277946
-0.000216505
0.00329644
0.00224937
2.36321e-06
0.00295916
0.00161289
0.000164351
0.0024888
0.000941189
0.000259259
0.00194702
0.000278968
0.000376478
0.00140196
-0.000395801
0.000505297
0.00116035
-0.00112282
0.000535002
0.00161353
-0.00188044
0.000581078
0.0023034
-0.00256229
0.000616708
0.00291003
-0.00308053
0.000506386
0.00338136
-0.00330839
0.000112865
0.00368401
-0.0032181
-0.000453459
0.003694
-0.00274994
-0.00120906
0.00332166
-0.00182302
-0.0020781
0.00242813
-0.0035355
0.000971223
0.00151054
-0.0055174
-0.00126372
0.00239225
-0.00350116
0.000594734
0.00280637
-0.00233966
0.00195431
0.00286848
-0.00141198
0.00286848
0.002645
-0.000618517
0.00340081
0.00213023
7.67659e-05
0.00357511
0.00147944
0.000393667
0.00356633
0.000799062
0.000591845
0.00343961
0.000126921
0.000721663
0.0031688
-0.000482393
0.000858604
0.00277224
-0.00103435
0.000911772
0.00262168
-0.00160402
0.000874105
0.00289693
-0.00215514
0.000864906
0.0032798
-0.00262187
0.000814382
0.00358533
-0.00295127
0.000598612
0.00372777
-0.00315402
0.000128332
0.0036065
-0.00303327
-0.000729709
0.00315345
-0.00255119
-0.00165066
0.0022064
-0.00162567
-0.00275272
0.000794963
-0.00474815
-0.00114668
0.000776572
-0.0057847
-0.00260134
0.00133682
-0.00356442
-0.000815403
0.00150824
-0.00218582
0.000556219
0.00140221
-0.00119993
0.0014022
0.00115632
-0.000505884
0.0018747
0.000886179
-5.77005e-05
0.00218436
0.000488592
0.000356444
0.00231329
5.66992e-05
0.000660969
0.0023995
-0.000369665
0.000907474
0.00253199
-0.000886963
0.00122045
0.00265438
-0.00132878
0.00121723
0.00259955
-0.00160528
0.000980737
0.00252616
-0.00183419
0.000881704
0.00254143
-0.0020097
0.000733512
0.00256409
-0.00210419
0.000412434
0.00248817
-0.00204415
-0.000145584
0.00219954
-0.00194196
-0.000769009
0.00156067
-0.00160886
-0.00171765
0.000613463
-0.000916895
-0.00301947
-0.000837569
-0.00519548
-0.00271671
-0.000722007
-0.00457021
-0.00399365
-0.000979943
-0.0028111
-0.00270978
-0.00113607
-0.00173492
-0.00173517
-0.00119739
-0.00107726
-0.00119741
-0.00120902
-0.000580365
-0.00103787
-0.00120076
-0.00015629
-0.00112225
-0.00116521
0.000158319
-0.00111566
-0.00114423
0.00041637
-0.00100508
-0.00113435
0.000735662
-0.000688194
-0.00115228
0.00125551
-0.000227008
-0.0010399
0.00117543
-0.000218532
-0.00081951
0.000668983
-0.000523249
-0.000608017
0.000388148
-0.000664654
-0.000341355
0.000173057
-0.000637994
-9.91742e-06
-8.79525e-05
-0.000639689
0.000246919
-0.000494349
-0.0006899
0.000469628
-0.000945248
-0.000963131
0.000556392
-0.00153671
-0.00166928
0.000538444
-0.00254605
-0.00280815
-0.00420447
-0.00419472
-0.00410618
-0.00583389
-0.00638962
-0.00624313
-0.00760048
-0.00709523
-0.00813909
-0.0081391
-0.0081423
-0.00926977
-0.00765957
-0.0104181
-0.00669709
-0.0115913
-0.00522792
-0.012655
-0.00317223
-0.0133626
-0.000394243
-0.0132422
0.00234815
-0.0131221
0.00432591
-0.0131936
0.00574374
-0.0123984
0.00669739
-0.0112713
0.00722334
-0.0100767
0.0072907
-0.00894198
0.0068699
-0.00786204
0.00583403
-0.00691244
0.00377974
-0.00620617
-0.00597361
0.000572584
-0.000801667
0.00261966
0.00112597
-0.000788431
0.00263506
0.00165549
-0.00079705
0.00260676
0.00211224
-0.000760789
0.00253592
0.0024411
-0.0006577
0.00244109
0.00257532
-0.000475404
0.00236431
0.00244017
-0.000218065
0.00236721
0.00197162
8.11493e-05
0.00250955
0.00113225
0.000368697
0.00275289
-1.53745e-05
0.000569835
0.00297437
-0.0011149
0.000547161
0.00291983
-0.00169696
0.000176996
0.00261705
-0.00193383
-3.56272e-05
0.00226282
-0.00195658
-0.000147216
0.00191506
-0.00182581
-0.000223052
0.00164757
-0.00155272
-0.00030539
0.00149121
-0.00117342
-0.000360048
0.00141106
-0.00074731
-0.000355661
0.00136358
-0.000353362
-0.00027423
0.00132134
-0.000187844
0.00131238
5.47929e-05
-0.00104092
0.000367751
0.000302193
-0.00117497
0.000725847
0.000573759
-0.00122054
0.000923733
0.000826444
-0.00119515
0.0010146
0.00103673
-0.00107823
0.00103672
0.00117837
-0.000853046
0.00104059
0.00120121
-0.000504907
0.00108141
0.00102222
-4.0838e-05
0.00121636
0.000620284
0.000398008
0.00150456
0.000121083
0.00058813
0.00182513
-0.000332192
0.00049153
0.00191371
-0.000729359
0.000177281
0.00163522
-0.000994766
-3.26793e-05
0.00121756
-0.0010987
-0.000216901
0.000860404
-0.00100906
-0.000449899
0.000617823
-0.000822131
-0.000609846
0.000451986
-0.000595663
-0.000684987
0.000322601
-0.000355768
-0.000672575
0.000194529
-0.000117652
-0.000563335
3.56468e-05
-0.00034574
-0.000163469
4.53223e-05
-0.00112534
-0.000870965
0.000154556
-0.00126727
-0.000208309
0.000242528
-0.00129405
0.000112924
0.000306764
-0.00127672
0.000283426
0.000368755
-0.00120217
0.000368758
0.000449179
-0.00105664
0.000418398
0.000550004
-0.000803155
0.000457169
0.000645869
-0.000416244
0.000508995
0.000655687
2.85565e-05
0.000631244
0.000506934
0.000327867
0.000800851
0.000273453
0.000300075
0.000894857
1.31716e-05
7.34373e-05
0.000775156
-0.000110793
-0.00017571
0.000484138
-0.000136477
-0.000418823
0.000262324
-0.000103129
-0.000657013
0.000115754
-7.29779e-05