/*--------------------------------*- C++ -*----------------------------------*\
| =========                 |                                                 |
| \\      /  F ield         | OpenFOAM: The Open Source CFD Toolbox           |
|  \\    /   O peration     | Version:  1.7.1                                 |
|   \\  /    A nd           | Web:      www.OpenFOAM.com                      |
|    \\/     M anipulation  |                                                 |
\*---------------------------------------------------------------------------*/
FoamFile
{
    version     2.0;
    format      ascii;
    class       volVectorField;
    location    "1000";
    object      U;
}
// * * * * * * * * * * * * * * * * * * * * * * * * * * * * * * * * * * * * * //

dimensions      [0 1 -1 0 0 0 0];

internalField   nonuniform List<vector> 
4000
(
(0.00161876 -0.00558301 0.00161875)
(0.00404062 -0.00454031 0.00154417)
(0.0060451 -0.0036443 0.001344)
(0.00759792 -0.00291298 0.00115433)
(0.00865674 -0.00231905 0.001033)
(0.00911389 -0.00170063 0.00100492)
(0.00873822 -0.00103034 0.00107209)
(0.00731707 -0.000356585 0.00118428)
(0.00498936 0.000123466 0.00129291)
(0.00223415 0.000305037 0.00137802)
(-0.000687132 0.000121607 0.00142712)
(-0.00318501 -0.000342162 0.00138074)
(-0.00453421 -0.000835672 0.00127769)
(-0.00543719 -0.00115784 0.00117332)
(-0.00579871 -0.00165337 0.00111508)
(-0.00547296 -0.00220889 0.00109841)
(-0.0045815 -0.00261718 0.00112798)
(-0.00335106 -0.00295947 0.00121601)
(-0.0021024 -0.00328153 0.00134057)
(-0.000603992 -0.00370725 0.00149508)
(-1.15646e-05 -0.00689104 -1.15833e-05)
(-9.97458e-05 -0.00575512 0.000284556)
(-6.83668e-05 -0.00483202 0.000162597)
(0.00030288 -0.00399024 -3.15637e-05)
(0.00090852 -0.00317538 -0.000162776)
(0.001486 -0.00209884 -0.000212176)
(0.00175595 -0.000834894 -0.00012939)
(0.00159952 2.79001e-05 8.23461e-05)
(0.00126429 0.000464472 0.000239386)
(0.000742843 0.000656571 0.000275311)
(0.000243726 0.000421806 0.000226237)
(-0.000417127 -0.000322591 0.0002545)
(-0.00128857 -0.00127059 0.000316421)
(-0.00166228 -0.00165508 0.000201904)
(-0.00155482 -0.00216999 1.75561e-05)
(-0.00107866 -0.00294322 -0.000163641)
(-0.000455727 -0.00351478 -0.000274099)
(0.000148029 -0.00390826 -0.000317946)
(0.000317956 -0.00434023 -0.000422355)
(0.000464156 -0.00534688 -0.000584183)
(0.00010778 -0.0032976 0.000107746)
(-0.00111115 -0.00449262 0.000437448)
(-0.00243507 -0.00499725 0.000318147)
(-0.00308595 -0.00493483 0.00010664)
(-0.00318913 -0.00425559 -7.81647e-05)
(-0.00294484 -0.00293636 -0.000290597)
(-0.00222358 -0.0015369 -0.000489873)
(-0.00118383 -0.000736988 -0.000648029)
(0.000152946 -0.000181657 -0.000700767)
(0.00103465 -3.89708e-05 -0.000655134)
(0.00156229 -0.000211836 -0.000571594)
(0.00202929 -0.000385237 -0.000606597)
(0.00236687 -0.000746386 -0.000767345)
(0.00264318 -0.00156104 -0.00086465)
(0.00319101 -0.00263164 -0.000918303)
(0.0036392 -0.00386516 -0.000988924)
(0.00361328 -0.00448066 -0.00111163)
(0.00282183 -0.00400222 -0.00108556)
(0.00110547 -0.00196105 -0.000878923)
(4.48017e-05 0.000656149 -0.000730374)
(0.0028164 -0.00667074 0.0028164)
(0.00504502 -0.00446028 0.00275844)
(0.00529837 -0.0032659 0.00247517)
(0.00388956 -0.00285573 0.00208973)
(0.00166889 -0.00259663 0.00166362)
(-0.000603152 -0.00192383 0.000954326)
(-0.00169827 -0.00156261 8.64285e-06)
(-0.00171939 -0.00145859 -0.000801428)
(-0.000993949 -0.00103082 -0.00148441)
(0.000625791 -7.19666e-05 -0.00158349)
(0.00180031 -0.000198508 -0.00134782)
(0.00299928 -0.000593638 -0.00115709)
(0.00411191 -0.00101105 -0.000930033)
(0.00468375 -0.00134321 -0.00053754)
(0.00380331 -0.00127316 7.14953e-05)
(0.00103045 -0.000231028 0.000713601)
(-0.00245079 0.00147727 0.00133015)
(-0.00491402 0.00215378 0.00207954)
(-0.00518476 0.00100944 0.00279558)
(-0.00295366 -0.00174408 0.00311001)
(0.00254143 -0.0189981 0.00254142)
(0.00611207 -0.0146723 0.00315828)
(0.0075546 -0.0108654 0.00349487)
(0.00777307 -0.00779703 0.00365245)
(0.00681662 -0.00544342 0.00362776)
(0.00544195 -0.00330614 0.00338516)
(0.0041855 -0.00122676 0.00285848)
(0.00288353 -3.94051e-05 0.00202931)
(0.00116531 0.000327085 0.00101839)
(0.000544263 0.000425189 -1.68971e-05)
(0.00116246 -0.00024242 -0.000453533)
(0.00151777 -0.000669139 -0.000148515)
(0.000817816 -0.000514553 0.000923919)
(-0.00198582 0.000274784 0.00228666)
(-0.00529286 0.000608887 0.00305604)
(-0.00777607 -0.000430285 0.00351628)
(-0.00909057 -0.00270709 0.00380039)
(-0.00868742 -0.00628872 0.0038055)
(-0.00671554 -0.0108012 0.00350241)
(-0.00274458 -0.0157551 0.00287839)
(0.00121404 -0.0259355 0.00121401)
(0.00336263 -0.0210761 0.00228138)
(0.00285356 -0.0167222 0.00295173)
(0.00229289 -0.013409 0.00343226)
(0.00100374 -0.0109029 0.00370315)
(-0.000264523 -0.00854629 0.00381737)
(-0.00112281 -0.00590503 0.0039118)
(-0.00143738 -0.00318026 0.00398959)
(-0.00135504 -0.0010378 0.0038814)
(-0.000957239 0.000133867 0.00339637)
(-0.000443996 0.000498758 0.0029251)
(-0.000546887 0.000261898 0.00307179)
(-0.00120468 -0.000497113 0.0036978)
(-0.00210934 -0.00177888 0.00412686)
(-0.00293232 -0.00358295 0.00422617)
(-0.00377391 -0.00601869 0.00404132)
(-0.00438224 -0.00894831 0.00360882)
(-0.00417778 -0.0128877 0.00304336)
(-0.00399635 -0.0180127 0.00230582)
(-0.00137397 -0.0234739 0.00125729)
(0.000166353 -0.0287515 0.000166308)
(0.000612314 -0.0243436 0.0013824)
(-0.00210792 -0.0204755 0.00177514)
(-0.00364723 -0.0179762 0.00185976)
(-0.00509446 -0.0161993 0.00174289)
(-0.00575714 -0.0147335 0.00162612)
(-0.00566324 -0.0133073 0.00166102)
(-0.00491834 -0.0118495 0.00192135)
(-0.00381797 -0.0104857 0.00236414)
(-0.00283467 -0.00915858 0.0029007)
(-0.00211205 -0.00803203 0.00309472)
(-0.00123579 -0.00822608 0.00253837)
(0.000131654 -0.00942998 0.00222422)
(0.00107748 -0.010364 0.00224216)
(0.00172252 -0.0112718 0.0022849)
(0.00180424 -0.0126234 0.00222621)
(0.00113667 -0.0146231 0.00207785)
(0.000448215 -0.0175723 0.00179267)
(-0.0015477 -0.0219998 0.00120804)
(-0.000402079 -0.0268644 -3.16766e-05)
(-0.00108408 -0.0271309 -0.00108414)
(-0.0023511 -0.02395 1.89798e-05)
(-0.00633025 -0.0216648 -0.000229471)
(-0.00838957 -0.0205814 -0.000685111)
(-0.00958353 -0.0200275 -0.00125933)
(-0.00960092 -0.019694 -0.00178139)
(-0.00862273 -0.0193162 -0.0021322)
(-0.00693619 -0.0187316 -0.00220591)
(-0.00499317 -0.017881 -0.00191582)
(-0.00346258 -0.0168058 -0.0012909)
(-0.00231453 -0.0159856 -0.00107997)
(-0.000501159 -0.0162801 -0.00186331)
(0.00201504 -0.017021 -0.00194025)
(0.00397995 -0.0173818 -0.00169119)
(0.00538498 -0.0175183 -0.0013269)
(0.00594128 -0.0177164 -0.000901233)
(0.0054187 -0.0182803 -0.000479741)
(0.00418888 -0.0195093 -0.000217988)
(0.00092088 -0.0221308 -0.000232044)
(0.00065761 -0.0256839 -0.00149137)
(-0.00318109 -0.0210059 -0.00318115)
(-0.00614883 -0.0192482 -0.00261952)
(-0.0109703 -0.0184924 -0.00350977)
(-0.013309 -0.0186252 -0.00450599)
(-0.014213 -0.0190397 -0.00546854)
(-0.0136586 -0.0195247 -0.00630505)
(-0.0118877 -0.0199216 -0.00693005)
(-0.00922518 -0.0201119 -0.00720808)
(-0.00617243 -0.0199994 -0.00694067)
(-0.0037332 -0.0195319 -0.00600798)
(-0.00180814 -0.0190824 -0.00567243)
(0.000987979 -0.019154 -0.00689958)
(0.00457554 -0.0192169 -0.00695858)
(0.00748474 -0.0188951 -0.00653167)
(0.00951648 -0.0183342 -0.00586459)
(0.0104234 -0.0177123 -0.00508059)
(0.0100001 -0.0172253 -0.00424563)
(0.00836227 -0.0170955 -0.00346455)
(0.00430786 -0.0180112 -0.00287235)
(0.00255093 -0.0199926 -0.00373877)
(-0.0065941 -0.0133832 -0.00659416)
(-0.011897 -0.0118516 -0.00776759)
(-0.017249 -0.0111204 -0.00992158)
(-0.0197326 -0.0109151 -0.0120298)
(-0.0204148 -0.0108065 -0.0140449)
(-0.0193971 -0.0106777 -0.0158856)
(-0.0168819 -0.0104507 -0.0174542)
(-0.013096 -0.0100701 -0.0185751)
(-0.00845891 -0.0095085 -0.0189263)
(-0.00431983 -0.00886467 -0.0179034)
(-0.000213823 -0.00870402 -0.0173754)
(0.00411421 -0.00922622 -0.0189061)
(0.00895091 -0.00984268 -0.0182375)
(0.0127455 -0.0101591 -0.0168996)
(0.0152868 -0.0102635 -0.0152545)
(0.0164613 -0.010254 -0.0134494)
(0.0161332 -0.0102375 -0.0115758)
(0.014303 -0.0103467 -0.0097369)
(0.0098457 -0.0111092 -0.0079717)
(0.00578837 -0.012788 -0.00719099)
(0.00154417 -0.0045403 0.00404062)
(0.0039171 -0.00392402 0.00391711)
(0.00600263 -0.00332814 0.0035379)
(0.00760387 -0.00274216 0.00314047)
(0.00870021 -0.00216325 0.00284843)
(0.00918005 -0.00150617 0.00272306)
(0.00882909 -0.000780289 0.0027921)
(0.00748526 -0.000152176 0.00300007)
(0.00516409 0.000244361 0.00317901)
(0.00230946 0.000493713 0.00325988)
(-0.000874009 0.000368446 0.00325203)
(-0.00347997 -0.000242999 0.00315957)
(-0.00483378 -0.000711565 0.00300502)
(-0.00563986 -0.00100085 0.00278331)
(-0.00593225 -0.00130448 0.00268863)
(-0.00559462 -0.00173838 0.00269606)
(-0.00470207 -0.00209912 0.00280345)
(-0.00344945 -0.00238416 0.00300556)
(-0.00210586 -0.00254688 0.00325559)
(-0.000708603 -0.00269407 0.00354758)
(0.000284555 -0.00575511 -9.97703e-05)
(0.000903043 -0.00551164 0.000903037)
(0.00129617 -0.00505338 0.000988244)
(0.00173045 -0.00440701 0.000779834)
(0.00221206 -0.00358929 0.000558919)
(0.00264086 -0.00245755 0.000436245)
(0.00284891 -0.0010491 0.000512697)
(0.00261241 0.000186478 0.000826061)
(0.00197644 0.00076066 0.00117651)
(0.00108469 0.000997269 0.00134126)
(0.00024081 0.00066401 0.00132616)
(-0.000724575 -0.000156079 0.00127591)
(-0.0017175 -0.000766966 0.0011669)
(-0.00233125 -0.00130645 0.000939084)
(-0.00234053 -0.00178307 0.000574384)
(-0.00194539 -0.00253585 0.000255528)
(-0.00142667 -0.00302678 5.19735e-05)
(-0.000923526 -0.00322694 -9.22127e-05)
(-0.00065019 -0.00327285 -0.000377809)
(-0.000207238 -0.00347632 -0.000954594)
(0.000437457 -0.00449262 -0.0011112)
(0.000358511 -0.00531056 0.000358483)
(-0.000123164 -0.0055312 0.000701352)
(-0.000534017 -0.005335 0.000613604)
(-0.000757849 -0.00467634 0.000385445)
(-0.000725306 -0.00351894 7.47854e-05)
(-0.000386973 -0.00201131 -0.000269768)
(0.000259373 -0.000514663 -0.000503858)
(0.00100397 0.000379397 -0.000421739)
(0.00135241 0.000493281 -0.000248372)
(0.00138382 0.000153327 -8.13901e-05)
(0.00128917 -0.000242539 -0.000114663)
(0.00123702 -0.000493674 -0.000398436)
(0.00134047 -0.00127031 -0.000714958)
(0.00163597 -0.00241926 -0.000900798)
(0.00189235 -0.00350252 -0.00117541)
(0.00170903 -0.00411079 -0.00150519)
(0.00111246 -0.00411876 -0.00174154)
(0.000243629 -0.00341374 -0.00209203)
(-5.08733e-05 -0.00209491 -0.00341632)
(0.00275844 -0.00446027 0.00504501)
(0.00482555 -0.00392597 0.00482556)
(0.00548539 -0.00352882 0.00427069)
(0.00460205 -0.0034002 0.00356017)
(0.00296562 -0.00333652 0.0028067)
(0.00140889 -0.00302387 0.00188936)
(0.00042023 -0.00248487 0.000652347)
(0.000126677 -0.00165505 -0.000529044)
(0.000552242 -0.000658212 -0.00140081)
(0.00136532 0.000111392 -0.00172667)
(0.0019333 4.77585e-05 -0.00153621)
(0.00240651 -0.00052918 -0.00131563)
(0.0028957 -0.00117747 -0.00104554)
(0.00302082 -0.00173839 -0.000586961)
(0.00211439 -0.00212492 0.000180701)
(4.41209e-05 -0.00139133 0.00102086)
(-0.00259886 -5.26008e-05 0.00194734)
(-0.00451559 0.000904152 0.0031599)
(-0.00454626 0.00119377 0.00442643)
(-0.00271911 0.0010212 0.00519065)
(0.00315827 -0.0146723 0.00611208)
(0.00700646 -0.0115684 0.00700648)
(0.00909217 -0.00850382 0.00726574)
(0.0097434 -0.00577743 0.0070618)
(0.00909422 -0.00375711 0.00653439)
(0.00771959 -0.00229825 0.00567899)
(0.00606876 -0.00123023 0.00440134)
(0.00424852 -0.000929562 0.00275827)
(0.00243069 -0.000959923 0.00116307)
(0.00137007 -0.000504574 -0.000172898)
(0.00114046 -0.000383035 -0.000789689)
(0.000669481 -0.000759644 -6.54669e-05)
(-0.000764374 -0.000633752 0.00179971)
(-0.00325012 9.50564e-05 0.00357608)
(-0.00638281 0.000615166 0.00486412)
(-0.00892151 0.000334427 0.00602073)
(-0.0101476 -0.00120834 0.00708982)
(-0.00961787 -0.00401074 0.00775268)
(-0.0073305 -0.00736811 0.00780524)
(-0.00333118 -0.0107684 0.00710869)
(0.00228139 -0.021076 0.0033626)
(0.00586566 -0.0171021 0.00586566)
(0.00684246 -0.0130955 0.00736722)
(0.00708404 -0.00937206 0.00818472)
(0.00628006 -0.00637267 0.00852298)
(0.00494686 -0.00387291 0.0084337)
(0.00345657 -0.00153714 0.0079757)
(0.00220018 0.000705735 0.00714063)
(0.00101855 0.00217394 0.00593798)
(7.68591e-05 0.00253566 0.00455783)
(-0.000367029 0.00227652 0.00379623)
(-0.00134186 0.00196699 0.00456505)
(-0.0031207 0.00191262 0.0059755)
(-0.00514244 0.00158224 0.00719579)
(-0.00683303 0.000355632 0.00809874)
(-0.00792234 -0.00206696 0.0085223)
(-0.00831797 -0.00528091 0.00833436)
(-0.00760549 -0.00926587 0.00763139)
(-0.00619126 -0.0135972 0.00621844)
(-0.0024158 -0.0179021 0.00386316)
(0.00138241 -0.0243436 0.000612252)
(0.00442039 -0.0200802 0.00442037)
(0.00355307 -0.0157572 0.00652295)
(0.00273723 -0.0117999 0.0076098)
(0.00127646 -0.00861033 0.00812382)
(-0.000141847 -0.00600031 0.00839053)
(-0.00133133 -0.0038017 0.00865809)
(-0.00204484 -0.00202221 0.00892687)
(-0.00207326 -0.000749332 0.00899366)
(-0.00194118 1.8918e-05 0.00874324)
(-0.00194496 0.000457749 0.00833736)
(-0.002232 0.000401253 0.00836759)
(-0.00260864 -0.000182747 0.00872097)
(-0.00295969 -0.00118105 0.00897955)
(-0.00327691 -0.00277307 0.0089722)
(-0.0038912 -0.00522039 0.00857332)
(-0.00454948 -0.00864362 0.00779923)
(-0.00468683 -0.0128164 0.00653925)
(-0.00497604 -0.017301 0.00431214)
(-0.00157363 -0.0217843 0.000550147)
(1.89966e-05 -0.02395 -0.00235118)
(0.00225637 -0.0198928 0.00225632)
(-0.000441388 -0.0160741 0.00427493)
(-0.00203994 -0.0129694 0.00498171)
(-0.00360002 -0.0104843 0.00500607)
(-0.00442071 -0.00836928 0.00483426)
(-0.00460792 -0.00643671 0.00478435)
(-0.00434027 -0.00456723 0.00507035)
(-0.00384831 -0.0027284 0.00574612)
(-0.00340234 -0.00102912 0.00661399)
(-0.00279746 -0.000241806 0.00688966)
(-0.00212166 -0.00100067 0.0063017)
(-0.0012187 -0.0028214 0.00576957)
(-0.000472778 -0.00462571 0.00561577)
(8.42838e-05 -0.00627058 0.00561087)
(0.000164354 -0.00821417 0.00558584)
(-0.000541062 -0.010791 0.00523488)
(-0.00129748 -0.0139485 0.00415907)
(-0.00322482 -0.0177183 0.00181869)
(-0.000303007 -0.0218921 -0.00291154)
(-0.00261951 -0.0192482 -0.00614893)
(-0.00260735 -0.0159367 -0.0026074)
(-0.00676698 -0.0137185 -0.00172699)
(-0.00877726 -0.0125519 -0.00193316)
(-0.00990696 -0.0118359 -0.00252171)
(-0.00987536 -0.0114199 -0.00308407)
(-0.0088813 -0.0111883 -0.00338134)
(-0.00718185 -0.0110395 -0.00317748)
(-0.00519485 -0.0108583 -0.00221181)
(-0.00382918 -0.0103859 -0.000518765)
(-0.00247761 -0.0100385 -0.000194658)
(-0.000900278 -0.010199 -0.00185146)
(0.00173884 -0.0103472 -0.00263115)
(0.00391765 -0.0104156 -0.00258418)
(0.00545574 -0.0104657 -0.00222263)
(0.00611178 -0.0106872 -0.00178488)
(0.00565874 -0.0112576 -0.0014718)
(0.00450328 -0.0123185 -0.00170459)
(0.00112363 -0.014484 -0.00312373)
(0.00218614 -0.0178404 -0.00699525)
(-0.00776757 -0.0118516 -0.0118971)
(-0.0127723 -0.00870305 -0.0127723)
(-0.0183882 -0.00664439 -0.0154149)
(-0.0210415 -0.00533402 -0.0183351)
(-0.0219827 -0.00428247 -0.0212732)
(-0.0212534 -0.00334509 -0.0240531)
(-0.0190243 -0.00242524 -0.0265004)
(-0.0153966 -0.00147733 -0.0283396)
(-0.0105321 -0.000461746 -0.0291129)
(-0.0056252 0.000621963 -0.027938)
(0.00151382 0.000484164 -0.0272918)
(0.00654552 -0.000758519 -0.0287863)
(0.011376 -0.00185743 -0.0277255)
(0.0149625 -0.00274404 -0.0256697)
(0.017259 -0.00350691 -0.023151)
(0.0182184 -0.00423719 -0.0204142)
(0.0177026 -0.00505215 -0.0176555)
(0.015744 -0.00609491 -0.0150894)
(0.0109966 -0.0079589 -0.0129803)
(0.0070515 -0.0110039 -0.0126467)
(0.001344 -0.00364428 0.00604509)
(0.00353789 -0.00332813 0.00600262)
(0.00564073 -0.00299871 0.00564072)
(0.00733623 -0.00260967 0.00518076)
(0.00854898 -0.00213285 0.00477663)
(0.00913622 -0.00150832 0.00453916)
(0.00888632 -0.000756412 0.00455545)
(0.00765392 -7.94851e-05 0.0048355)
(0.005352 0.000386486 0.0051393)
(0.00237823 0.000791347 0.00530746)
(-0.00118185 0.000780518 0.0053158)
(-0.00393658 2.74843e-05 0.0051357)
(-0.00520929 -0.000515289 0.00479061)
(-0.00589502 -0.000790453 0.00436068)
(-0.00605349 -0.000994692 0.00408278)
(-0.0056341 -0.00136931 0.00398924)
(-0.00467664 -0.00170136 0.00405793)
(-0.00335595 -0.00192868 0.00423579)
(-0.00190021 -0.00196511 0.00444344)
(-0.00064442 -0.00188039 0.00473021)
(0.000162592 -0.00483199 -6.83917e-05)
(0.000988243 -0.00505337 0.00129616)
(0.00167523 -0.00488915 0.00167523)
(0.00231939 -0.00445986 0.0016395)
(0.00288792 -0.00373485 0.00147297)
(0.00333193 -0.00262998 0.00133469)
(0.00352236 -0.00118478 0.00134593)
(0.00322888 0.000252571 0.00161895)
(0.00242245 0.00106598 0.00210386)
(0.00126178 0.00143048 0.00244757)
(0.000111109 0.00110064 0.00250698)
(-0.0010738 9.57118e-05 0.00229279)
(-0.00211425 -0.000556572 0.00189391)
(-0.00284466 -0.00103131 0.0014316)
(-0.00289614 -0.00149039 0.000924664)
(-0.00250176 -0.00216574 0.000527766)
(-0.0019499 -0.00260546 0.000248974)
(-0.0013819 -0.00269845 2.31182e-06)
(-0.00090625 -0.00249116 -0.000399552)
(-0.000344732 -0.00206827 -0.00112756)
(0.000318152 -0.00499724 -0.00243512)
(0.000701369 -0.0055312 -0.000123194)
(0.000687841 -0.00559522 0.000687823)
(0.000524323 -0.00536114 0.000845338)
(0.000372516 -0.00475075 0.000709581)
(0.000388651 -0.00371467 0.00040953)
(0.000636936 -0.00223643 1.42022e-05)
(0.001085 -0.00054318 -0.000278446)
(0.00156085 0.000664622 -0.000245997)
(0.00163398 0.000979266 -2.35602e-05)
(0.00134725 0.000637272 0.000161679)
(0.000902846 1.98173e-05 0.000110055)
(0.000597526 -0.000351845 -0.000230244)
(0.000545441 -0.0010554 -0.000633293)
(0.000724416 -0.00219762 -0.000823161)
(0.000916213 -0.00315156 -0.00117133)
(0.000811879 -0.00374337 -0.00164519)
(0.000482376 -0.00398178 -0.0021703)
(0.00012489 -0.00389972 -0.00304832)
(0.000131711 -0.00359541 -0.00548586)
(0.00247516 -0.00326589 0.00529834)
(0.00427068 -0.00352882 0.00548538)
(0.00504806 -0.00356081 0.00504806)
(0.00448479 -0.00363123 0.00424825)
(0.00326335 -0.00368943 0.00332013)
(0.00209461 -0.00350823 0.00228523)
(0.00132156 -0.00291199 0.00110269)
(0.00106261 -0.00182423 -3.39384e-05)
(0.00131824 -0.00052172 -0.00105282)
(0.0018441 0.000469166 -0.0016298)
(0.00208163 0.000455535 -0.00164043)
(0.00215267 -0.000300792 -0.00144271)
(0.00233799 -0.00113106 -0.0011335)
(0.00232462 -0.0018305 -0.0006317)
(0.00155114 -0.00245813 0.000161935)
(-5.69555e-06 -0.00218327 0.000977506)
(-0.00198622 -0.001204 0.00197483)
(-0.00349991 -0.000230122 0.00324157)
(-0.00350987 0.000567566 0.00441118)
(-0.00217157 0.00159668 0.00486711)
(0.00349486 -0.0108654 0.00755461)
(0.00726571 -0.00850381 0.00909219)
(0.00958964 -0.00625797 0.00958967)
(0.0103965 -0.00423897 0.00925247)
(0.00985427 -0.00283715 0.00835386)
(0.008447 -0.00204787 0.00703662)
(0.00662089 -0.00168738 0.005336)
(0.00467695 -0.00167382 0.00335101)
(0.00298834 -0.00161595 0.00132533)
(0.00190359 -0.000916614 -0.00029161)
(0.00131365 -0.000506047 -0.000927386)
(0.000485504 -0.000946601 6.59432e-05)
(-0.00112459 -0.00089422 0.00232276)
(-0.00339519 -0.000170696 0.00442877)
(-0.00620551 0.00037884 0.00613293)
(-0.00864051 0.000509269 0.00776579)
(-0.00992427 -0.000223875 0.00935351)
(-0.00949496 -0.00202668 0.0103664)
(-0.00726495 -0.00431079 0.0104213)
(-0.00360379 -0.00671485 0.00931309)
(0.00295174 -0.0167222 0.00285354)
(0.00736722 -0.0130955 0.00684246)
(0.00929711 -0.0098609 0.00929712)
(0.0101356 -0.00671465 0.010529)
(0.0097692 -0.00406753 0.0108639)
(0.0085581 -0.00196421 0.0104466)
(0.00686709 -0.000270222 0.00942997)
(0.00502647 0.00106023 0.00796994)
(0.00303512 0.00188473 0.00621753)
(0.00117569 0.00213421 0.00431074)
(-0.000323793 0.00205413 0.00336649)
(-0.00205944 0.00188685 0.00478322)
(-0.00442481 0.00207845 0.00698032)
(-0.00690838 0.00217453 0.00885581)
(-0.00906001 0.00152367 0.0102793)
(-0.0104112 -0.000285775 0.0111299)
(-0.010658 -0.00298115 0.0110847)
(-0.00964108 -0.00618378 0.010051)
(-0.00750515 -0.00949058 0.00773545)
(-0.00313712 -0.013201 0.00391975)
(0.00177514 -0.0204755 -0.00210798)
(0.00652296 -0.0157572 0.00355303)
(0.00713032 -0.011803 0.0071303)
(0.00719159 -0.00804388 0.00915486)
(0.00625075 -0.00491933 0.0102051)
(0.00478479 -0.00258857 0.0106342)
(0.00295913 -0.00097691 0.0107499)
(0.00107018 0.000133069 0.0106739)
(-0.000308762 0.000987973 0.0100628)
(-0.00125651 0.00157145 0.00915481)
(-0.00214036 0.00184024 0.00853874)
(-0.00331149 0.00171106 0.00901856)
(-0.0047306 0.00160415 0.0100441)
(-0.00610535 0.00130235 0.0109316)
(-0.00729739 0.000248485 0.0114067)
(-0.00813226 -0.00191996 0.0109393)
(-0.00850053 -0.00512219 0.00965755)
(-0.00799137 -0.00888981 0.00740525)
(-0.00697105 -0.0127798 0.00365621)
(-0.00206122 -0.0175191 -0.00202726)
(-0.000229471 -0.0216647 -0.00633033)
(0.00427496 -0.0160741 -0.000441453)
(0.00319879 -0.0119291 0.00319875)
(0.00255486 -0.00810779 0.00490401)
(0.00123625 -0.00470172 0.00537178)
(-5.25297e-05 -0.00172704 0.00525393)
(-0.00110764 0.000745794 0.0052969)
(-0.00177647 0.00267054 0.0058627)
(-0.00216839 0.00410432 0.00696687)
(-0.00266317 0.00496675 0.00789241)
(-0.00321391 0.0052088 0.00791992)
(-0.00364858 0.00485322 0.00743462)
(-0.00388127 0.00405104 0.00720432)
(-0.00405519 0.00260552 0.00703094)
(-0.00408366 0.000449082 0.00668307)
(-0.00430566 -0.00245299 0.00626654)
(-0.00472568 -0.00589056 0.0052947)
(-0.00466667 -0.00968953 0.00311757)
(-0.0050918 -0.0136827 -0.000896235)
(-6.80857e-05 -0.0193251 -0.0069203)
(-0.00350976 -0.0184923 -0.0109704)
(-0.00172696 -0.0137185 -0.00676704)
(-0.00467644 -0.0106415 -0.00467647)
(-0.00559441 -0.00867455 -0.00415727)
(-0.00633359 -0.00729001 -0.00445436)
(-0.0063864 -0.00635073 -0.00493851)
(-0.0059368 -0.00579084 -0.00516352)
(-0.00520722 -0.00550517 -0.00468774)
(-0.00447199 -0.00533978 -0.00303569)
(-0.00415701 -0.00446533 -0.000518402)
(-0.00358859 -0.00396005 -0.00024393)
(-0.00263773 -0.00457541 -0.00195994)
(-0.00102575 -0.0047343 -0.00378855)
(0.000470326 -0.00498234 -0.00419228)
(0.0016523 -0.00540479 -0.00381227)
(0.00246498 -0.00617018 -0.00336034)
(0.00256306 -0.00741449 -0.00345594)
(0.00265091 -0.00927427 -0.00458471)
(0.000469068 -0.0122456 -0.0072969)
(0.00310713 -0.0169379 -0.0118417)
(-0.00992158 -0.0111204 -0.0172491)
(-0.0154149 -0.00664438 -0.0183883)
(-0.0213523 -0.00385914 -0.0213523)
(-0.0240052 -0.00202286 -0.0248388)
(-0.0249133 -0.000524663 -0.0284701)
(-0.0241415 0.000815301 -0.0320097)
(-0.021838 0.00213408 -0.035216)
(-0.0179632 0.00349728 -0.0377053)
(-0.0124729 0.0050084 -0.0389052)
(-0.00662389 0.00670636 -0.0376054)
(0.00308439 0.00636317 -0.0368908)
(0.00893331 0.00443053 -0.0383289)
(0.0143022 0.00283009 -0.0368686)
(0.0180909 0.00150851 -0.0341799)
(0.0204649 0.000352923 -0.0309184)
(0.0214591 -0.000769172 -0.0274097)
(0.0209398 -0.00200471 -0.0239554)
(0.0189105 -0.00352207 -0.0208395)
(0.0137521 -0.00602832 -0.0184439)
(0.00917543 -0.0102487 -0.0179258)
(0.00115432 -0.00291296 0.00759789)
(0.00314047 -0.00274216 0.00760384)
(0.00518076 -0.00260967 0.00733621)
(0.00692033 -0.00238806 0.00692031)
(0.00824206 -0.00202657 0.00649412)
(0.00896839 -0.00147361 0.00619553)
(0.00887391 -0.000745316 0.00616819)
(0.007797 -1.03665e-05 0.00650191)
(0.00554384 0.00054198 0.00695144)
(0.00241836 0.00109766 0.00723861)
(-0.00167329 0.00120923 0.0071957)
(-0.00458675 0.000333049 0.00683809)
(-0.00576258 -0.000287408 0.00625593)
(-0.00629732 -0.000566637 0.00557075)
(-0.00625558 -0.000724863 0.00504935)
(-0.00569213 -0.00102162 0.00480649)
(-0.00464018 -0.00129988 0.00477473)
(-0.00326406 -0.00146691 0.00485418)
(-0.00175649 -0.00142581 0.00495555)
(-0.000598874 -0.00130162 0.00516561)
(-3.15678e-05 -0.0039902 0.000302857)
(0.000779833 -0.00440699 0.00173043)
(0.00163951 -0.00445986 0.00231938)
(0.00246532 -0.00421486 0.00246531)
(0.00316528 -0.00362222 0.00239416)
(0.00369238 -0.00262128 0.00228495)
(0.00393211 -0.00123346 0.00229785)
(0.00365718 0.000324341 0.00258989)
(0.00276464 0.00140184 0.0032334)
(0.00136994 0.00194267 0.00380868)
(-0.000130648 0.00165767 0.00396766)
(-0.00151168 0.000472356 0.00354885)
(-0.00256792 -0.00030551 0.00279349)
(-0.0033032 -0.00078742 0.00203332)
(-0.0033297 -0.00128983 0.00139316)
(-0.00288537 -0.00183238 0.000927714)
(-0.00224729 -0.00219072 0.000578927)
(-0.00155589 -0.0022034 0.000251186)
(-0.000875593 -0.00181293 -0.00020484)
(-0.000258645 -0.000982862 -0.000919577)
(0.000106646 -0.0049348 -0.00308599)
(0.000613619 -0.00533499 -0.000534041)
(0.000845352 -0.00536114 0.000524309)
(0.000920564 -0.0051577 0.000920555)
(0.000927534 -0.00464244 0.000961483)
(0.0010249 -0.00373932 0.000810197)
(0.00127541 -0.00238323 0.00056393)
(0.00164699 -0.000632264 0.00034881)
(0.00198444 0.000918412 0.000409669)
(0.00189459 0.00148141 0.000733366)
(0.00135881 0.00116209 0.000974374)
(0.000630994 0.000340263 0.000847069)
(0.000128739 -0.000226452 0.00032728)
(-2.86857e-05 -0.000915549 -0.000214473)
(5.25791e-05 -0.00203352 -0.000484741)
(0.000202078 -0.0028746 -0.000869783)
(0.000175393 -0.00336852 -0.0014088)
(5.22958e-05 -0.00362083 -0.00210791)
(3.37309e-06 -0.00365641 -0.00322745)
(0.000131831 -0.00348606 -0.00574729)
(0.00208972 -0.00285575 0.00388952)
(0.00356017 -0.00340021 0.00460203)
(0.00424825 -0.00363124 0.00448478)
(0.00390474 -0.00384284 0.00390474)
(0.00308467 -0.00396966 0.00317635)
(0.00229277 -0.00381033 0.00240523)
(0.00176009 -0.00319601 0.00155358)
(0.00160676 -0.00206109 0.000660104)
(0.00181965 -0.000549098 -0.000272007)
(0.00219425 0.000647621 -0.000936343)
(0.00225832 0.000741851 -0.00105214)
(0.002041 -7.77603e-05 -0.000916126)
(0.00193606 -0.00110365 -0.000693745)
(0.00174787 -0.0018829 -0.00027657)
(0.00112624 -0.00263698 0.000268244)
(1.44726e-05 -0.00282648 0.000804242)
(-0.00137701 -0.00229955 0.0014285)
(-0.00252972 -0.00154876 0.0022407)
(-0.0026549 -0.00076397 0.00288786)
(-0.00170129 0.000407284 0.0027068)
(0.00365244 -0.007797 0.00777307)
(0.00706177 -0.00577741 0.00974342)
(0.00925244 -0.00423896 0.0103965)
(0.00998404 -0.00301576 0.00998407)
(0.00947339 -0.00232824 0.00889993)
(0.00814819 -0.00214643 0.00743783)
(0.00642446 -0.00222779 0.00572551)
(0.00468151 -0.00228788 0.00385367)
(0.00329375 -0.00199551 0.00197727)
(0.00241629 -0.00131503 0.00036167)
(0.00173834 -0.000848963 -0.000267571)
(0.000740093 -0.00126188 0.000653895)
(-0.00085399 -0.00149448 0.00267212)
(-0.00279519 -0.0009076 0.00462581)
(-0.00523606 -0.000282143 0.00638247)
(-0.00746384 0.000143425 0.00819899)
(-0.00877162 0.000128667 0.0100033)
(-0.00859248 -0.000682346 0.0112247)
(-0.00671946 -0.00203215 0.0113071)
(-0.00363721 -0.00380033 0.00993788)
(0.00343226 -0.013409 0.00229287)
(0.0081847 -0.00937203 0.00708404)
(0.010529 -0.00671464 0.0101356)
(0.0116556 -0.00434959 0.0116557)
(0.0115406 -0.00236006 0.0119801)
(0.010468 -0.000878707 0.0113822)
(0.00876574 2.06388e-05 0.0101349)
(0.00667936 0.000486001 0.00841753)
(0.00432947 0.000678806 0.00641492)
(0.00203698 0.000834222 0.00444565)
(-0.000185372 0.00120578 0.00358968)
(-0.00247826 0.00143582 0.00521693)
(-0.00513831 0.0017485 0.00769397)
(-0.00773858 0.00200314 0.00982108)
(-0.00993604 0.00180733 0.0114754)
(-0.011312 0.000780006 0.0125355)
(-0.0115547 -0.00110409 0.012608)
(-0.010517 -0.00342401 0.0113956)
(-0.00818567 -0.00601631 0.00853861)
(-0.00368074 -0.00991151 0.00385824)
(0.00185976 -0.0179762 -0.00364729)
(0.0076098 -0.0117999 0.00273719)
(0.00915487 -0.00804387 0.00719157)
(0.0100135 -0.00499279 0.0100135)
(0.00971495 -0.0026899 0.0116099)
(0.00844041 -0.00119974 0.0122172)
(0.00632786 -0.00023569 0.0120596)
(0.00388041 0.000261085 0.0115683)
(0.00152355 0.000591728 0.0106726)
(-0.000688655 0.00113218 0.00936529)
(-0.00260826 0.00152436 0.00876128)
(-0.00451326 0.00152665 0.00958149)
(-0.0064964 0.00164605 0.0109112)
(-0.00829756 0.00170692 0.0120416)
(-0.00976122 0.00118333 0.0126615)
(-0.0107887 -0.00028342 0.0123978)
(-0.0108816 -0.00247632 0.0107985)
(-0.00983731 -0.0053498 0.00783716)
(-0.0080085 -0.00890802 0.00323888)
(-0.00221393 -0.0149708 -0.00331517)
(-0.000685107 -0.0205814 -0.00838965)
(0.00498172 -0.0129693 -0.00204001)
(0.00490403 -0.00810778 0.00255481)
(0.0052184 -0.00397797 0.00521838)
(0.004576 -0.000535781 0.0064822)
(0.00361775 0.00215595 0.00708283)
(0.00243251 0.00393828 0.00744627)
(0.000946438 0.00500934 0.00776957)
(-0.000506035 0.00570769 0.00838036)
(-0.00218239 0.00615487 0.00893035)
(-0.00390424 0.00615781 0.00875849)
(-0.00513249 0.00588821 0.00846019)
(-0.00596507 0.00562049 0.00849756)
(-0.00669466 0.00506701 0.00859157)
(-0.00718912 0.00389985 0.00836401)
(-0.00729081 0.00162555 0.0074641)
(-0.0070496 -0.00184954 0.00567734)
(-0.00614837 -0.00595372 0.00263491)
(-0.00566041 -0.0106572 -0.00224471)
(0.000391448 -0.0182243 -0.00886019)
(-0.00450599 -0.0186252 -0.0133091)
(-0.00193315 -0.0125519 -0.00877733)
(-0.00415725 -0.00867455 -0.00559446)
(-0.00400575 -0.00620977 -0.00400578)
(-0.00417732 -0.00455036 -0.00364306)
(-0.00414189 -0.00349373 -0.00375725)
(-0.00399688 -0.00290625 -0.0036197)
(-0.00398575 -0.00242682 -0.00329503)
(-0.00391475 -0.00184288 -0.00219556)
(-0.00405762 -0.000412405 -0.0005631)
(-0.00377874 -0.000437927 -0.000470453)
(-0.00326708 -0.00164213 -0.00163428)
(-0.00244397 -0.00187422 -0.00208789)
(-0.00174518 -0.00206653 -0.00189976)
(-0.000694092 -0.0025642 -0.00203062)
(0.00057971 -0.0035346 -0.00250481)
(0.00117279 -0.00508625 -0.0032147)
(0.00235495 -0.00747772 -0.00541626)
(0.000848513 -0.0112092 -0.00919563)
(0.00410766 -0.0170854 -0.0140782)
(-0.0120298 -0.0109151 -0.0197327)
(-0.0183351 -0.00533402 -0.0210416)
(-0.0248388 -0.00202286 -0.0240053)
(-0.0276156 0.000118221 -0.0276156)
(-0.0285112 0.00185156 -0.031493)
(-0.0276642 0.00340884 -0.0353983)
(-0.0252101 0.00497878 -0.0390802)
(-0.0209663 0.00665519 -0.0420917)
(-0.0146673 0.00860558 -0.0437735)
(-0.00763579 0.01093 -0.0426946)
(0.00500698 0.0104271 -0.0422106)
(0.011725 0.00794333 -0.043139)
(0.0177541 0.00594005 -0.0411411)
(0.0218412 0.00428584 -0.037891)
(0.0243725 0.00285016 -0.0341969)
(0.0254282 0.00144305 -0.0303621)
(0.0248624 -5.59616e-05 -0.0266626)
(0.0226061 -0.00187609 -0.023395)
(0.0167776 -0.0048767 -0.0209625)