/*--------------------------------*- C++ -*----------------------------------*\
| =========                 |                                                 |
| \\      /  F ield         | OpenFOAM: The Open Source CFD Toolbox           |
|  \\    /   O peration     | Version:  1.7.1                                 |
|   \\  /    A nd           | Web:      www.OpenFOAM.com                      |
|    \\/     M anipulation  |                                                 |
\*---------------------------------------------------------------------------*/
FoamFile
{
    version     2.0;
    format      ascii;
    class       volScalarField;
    location    "1600";
    object      epsilon;
}
// * * * * * * * * * * * * * * * * * * * * * * * * * * * * * * * * * * * * * //

dimensions      [0 2 -3 0 0 0 0];

internalField   nonuniform List<scalar> 
4000
(
8.61789e-09
8.86254e-09
8.44417e-09
8.37718e-09
8.24207e-09
7.88514e-09
7.48523e-09
7.12647e-09
6.85897e-09
6.70442e-09
6.56783e-09
6.40095e-09
6.36124e-09
6.52055e-09
6.83578e-09
6.99308e-09
6.90469e-09
7.07114e-09
7.06756e-09
6.40461e-09
1.39379e-08
1.53058e-08
1.49002e-08
1.50314e-08
1.41367e-08
1.31673e-08
1.279e-08
1.24138e-08
1.2351e-08
1.25567e-08
1.26353e-08
1.24032e-08
1.23614e-08
1.25157e-08
1.297e-08
1.35944e-08
1.40463e-08
1.40382e-08
1.45825e-08
1.15919e-08
4.63516e-08
2.76495e-08
2.28405e-08
2.46334e-08
2.39417e-08
2.23751e-08
2.1527e-08
2.08859e-08
2.12112e-08
2.19793e-08
2.23882e-08
2.18032e-08
2.23687e-08
2.3202e-08
2.41096e-08
2.53369e-08
2.38165e-08
2.38734e-08
3.89274e-08
6.3467e-08
1.64467e-07
1.41425e-07
1.06317e-07
6.88957e-08
3.97323e-08
3.06424e-08
3.0785e-08
2.98753e-08
3.02425e-08
3.16794e-08
3.23007e-08
3.18296e-08
3.32394e-08
3.29089e-08
3.80828e-08
5.85131e-08
9.01891e-08
1.29528e-07
1.64746e-07
1.90245e-07
2.20941e-07
2.09875e-07
1.87637e-07
1.58852e-07
1.31656e-07
1.04537e-07
7.32704e-08
4.76139e-08
4.06996e-08
4.22723e-08
4.16998e-08
4.80261e-08
6.90659e-08
9.63926e-08
1.23743e-07
1.51197e-07
1.80837e-07
2.10346e-07
2.35193e-07
2.48696e-07
2.5628e-07
2.62313e-07
2.57695e-07
2.47622e-07
2.3718e-07
2.22941e-07
2.06287e-07
1.89822e-07
1.74162e-07
1.62452e-07
1.63396e-07
1.80139e-07
2.0198e-07
2.23773e-07
2.43241e-07
2.58645e-07
2.72214e-07
2.85249e-07
2.92226e-07
2.86611e-07
2.85519e-07
3.16492e-07
3.44362e-07
3.69275e-07
3.91492e-07
4.07555e-07
4.14527e-07
4.10847e-07
3.94429e-07
3.666e-07
3.62828e-07
3.89124e-07
4.13511e-07
4.26899e-07
4.27741e-07
4.17628e-07
4.00051e-07
3.78259e-07
3.51785e-07
3.18492e-07
3.17201e-07
3.79223e-07
4.46087e-07
5.09668e-07
5.66805e-07
6.13266e-07
6.44259e-07
6.55086e-07
6.40619e-07
5.94683e-07
5.89005e-07
6.30295e-07
6.56007e-07
6.57718e-07
6.37377e-07
5.99246e-07
5.47677e-07
4.86877e-07
4.19586e-07
3.53308e-07
3.57501e-07
4.58279e-07
5.68821e-07
6.74596e-07
7.719e-07
8.55247e-07
9.16844e-07
9.47675e-07
9.35932e-07
8.67681e-07
8.6241e-07
9.27679e-07
9.54977e-07
9.39396e-07
8.89422e-07
8.14675e-07
7.22152e-07
6.17608e-07
5.0464e-07
3.96978e-07
4.15054e-07
5.71765e-07
7.37953e-07
8.93436e-07
1.03639e-06
1.16197e-06
1.26349e-06
1.32992e-06
1.34307e-06
1.27118e-06
1.27178e-06
1.34949e-06
1.35331e-06
1.30242e-06
1.21263e-06
1.09406e-06
9.53699e-07
7.96946e-07
6.25316e-07
4.58863e-07
8.86254e-09
1.1494e-08
1.30343e-08
1.42315e-08
1.4569e-08
1.40349e-08
1.30994e-08
1.2345e-08
1.18353e-08
1.15618e-08
1.12628e-08
1.09028e-08
1.08694e-08
1.14804e-08
1.22965e-08
1.24284e-08
1.18425e-08
1.10276e-08
9.78474e-09
6.95121e-09
1.53058e-08
1.67204e-08
2.08929e-08
2.24464e-08
2.2234e-08
2.09377e-08
1.79455e-08
1.53696e-08
1.41776e-08
1.38712e-08
1.37708e-08
1.3916e-08
1.51346e-08
1.73668e-08
1.87502e-08
1.9541e-08
2.02285e-08
1.80688e-08
1.61668e-08
1.46859e-08
2.76494e-08
2.96442e-08
3.70278e-08
3.49965e-08
3.09597e-08
2.82558e-08
2.28821e-08
1.9716e-08
1.87599e-08
1.89813e-08
1.97878e-08
2.08886e-08
2.3851e-08
2.91085e-08
3.09914e-08
3.36657e-08
3.81895e-08
3.38635e-08
3.38138e-08
3.85389e-08
1.41425e-07
1.38876e-07
1.07394e-07
8.22956e-08
6.44111e-08
5.12149e-08
3.8483e-08
2.98138e-08
2.63299e-08
2.59198e-08
2.7563e-08
3.03138e-08
3.71407e-08
4.84353e-08
5.70736e-08
7.3509e-08
9.71834e-08
1.33016e-07
1.71403e-07
1.68421e-07
2.09874e-07
2.10198e-07
1.87623e-07
1.49677e-07
1.14635e-07
9.36848e-08
7.53711e-08
5.5308e-08
4.10335e-08
3.74025e-08
4.0588e-08
4.76534e-08
6.22288e-08
8.02677e-08
1.02771e-07
1.33161e-07
1.70101e-07
2.05261e-07
2.31165e-07
2.40028e-07
2.62312e-07
2.36212e-07
2.26246e-07
2.11476e-07
1.90265e-07
1.58061e-07
1.29396e-07
1.08735e-07
9.84764e-08
9.17025e-08
9.42132e-08
1.04869e-07
1.24227e-07
1.5201e-07
1.84464e-07
2.10731e-07
2.30453e-07
2.46703e-07
2.6029e-07
2.96579e-07
3.16492e-07
2.80328e-07
2.88884e-07
3.0052e-07
3.08545e-07
3.02363e-07
2.71823e-07
2.35013e-07
2.02021e-07
1.87406e-07
1.87025e-07
2.08239e-07
2.47784e-07
2.90653e-07
3.1962e-07
3.29837e-07
3.2522e-07
3.17439e-07
3.11839e-07
3.5475e-07
3.79223e-07
3.58318e-07
3.92985e-07
4.33658e-07
4.745e-07
5.07412e-07
5.18456e-07
5.03824e-07
4.63998e-07
4.07547e-07
4.00384e-07
4.46419e-07
4.8991e-07
5.16457e-07
5.18137e-07
4.99231e-07
4.67804e-07
4.34e-07
4.00675e-07
4.22116e-07
4.58279e-07
5.15265e-07
6.13926e-07
7.1121e-07
8.07057e-07
8.93797e-07
9.52466e-07
9.68082e-07
9.22218e-07
7.98146e-07
7.87064e-07
9.01095e-07
9.69462e-07
9.74011e-07
9.28123e-07
8.53942e-07
7.64653e-07
6.70545e-07
5.71431e-07
5.07496e-07
5.71765e-07
7.8264e-07
1.01022e-06
1.23134e-06
1.44363e-06
1.63943e-06
1.80597e-06
1.92249e-06
1.95811e-06
1.8732e-06
1.8776e-06
1.97278e-06
1.96286e-06
1.8691e-06
1.71786e-06
1.52917e-06
1.31667e-06
1.09007e-06
8.52466e-07
6.27686e-07
8.44418e-09
1.30343e-08
1.59521e-08
1.75995e-08
1.82656e-08
1.7769e-08
1.68491e-08
1.62456e-08
1.60028e-08
1.59323e-08
1.55769e-08
1.5055e-08
1.49774e-08
1.56794e-08
1.66215e-08
1.66484e-08
1.57346e-08
1.40633e-08
1.13261e-08
6.99236e-09
1.49003e-08
2.08929e-08
2.42763e-08
2.50308e-08
2.50824e-08
2.41071e-08
2.10149e-08
1.86457e-08
1.78139e-08
1.79384e-08
1.79154e-08
1.79547e-08
1.91822e-08
2.15991e-08
2.30861e-08
2.34932e-08
2.36171e-08
2.23916e-08
1.84204e-08
1.42354e-08
2.28405e-08
3.70279e-08
4.08392e-08
3.80846e-08
3.5627e-08
3.33463e-08
2.63623e-08
2.27629e-08
2.18017e-08
2.22941e-08
2.348e-08
2.52108e-08
2.8557e-08
3.45659e-08
3.76415e-08
3.91788e-08
4.22994e-08
4.20768e-08
3.49431e-08
2.21397e-08
1.06317e-07
1.07394e-07
9.32318e-08
8.32577e-08
7.23525e-08
6.06695e-08
4.46114e-08
3.48043e-08
2.99166e-08
2.89367e-08
3.17756e-08
3.68373e-08
4.48172e-08
5.6841e-08
6.75341e-08
7.9637e-08
9.27813e-08
1.12145e-07
1.3609e-07
1.32183e-07
1.87637e-07
1.87622e-07
1.6302e-07
1.31025e-07
1.06509e-07
9.3822e-08
8.18565e-08
6.51487e-08
4.90268e-08
4.03059e-08
4.5998e-08
5.67648e-08
6.83563e-08
8.15887e-08
9.74003e-08
1.19812e-07
1.50925e-07
1.84892e-07
2.1167e-07
2.17689e-07
2.57695e-07
2.26246e-07
1.9846e-07
1.71315e-07
1.43917e-07
1.1949e-07
9.81732e-08
8.21013e-08
7.33271e-08
6.49007e-08
6.78117e-08
7.86564e-08
9.47834e-08
1.15611e-07
1.38676e-07
1.63537e-07
1.91125e-07
2.2009e-07
2.51924e-07
2.93874e-07
3.44362e-07
2.88884e-07
2.60689e-07
2.39033e-07
2.13299e-07
1.92279e-07
1.67042e-07
1.4269e-07
1.23466e-07
1.1551e-07
1.1707e-07
1.33606e-07
1.6081e-07
1.9066e-07
2.17802e-07
2.45064e-07
2.69287e-07
2.92779e-07
3.22e-07
3.85723e-07
4.46087e-07
3.92985e-07
3.9112e-07
3.90219e-07
3.79547e-07
3.46431e-07
3.25528e-07
3.05759e-07
2.772e-07
2.42269e-07
2.38351e-07
2.77882e-07
3.18463e-07
3.50307e-07
3.95394e-07
4.29456e-07
4.42244e-07
4.42944e-07
4.39898e-07
4.93827e-07
5.68821e-07
6.13926e-07
7.42648e-07
8.89304e-07
1.03369e-06
1.17628e-06
1.2464e-06
1.23497e-06
1.09072e-06
8.67685e-07
8.4434e-07
1.08132e-06
1.27587e-06
1.32225e-06
1.24673e-06
1.12593e-06
9.78736e-07
8.2424e-07
6.80114e-07
6.25291e-07
7.37953e-07
1.01022e-06
1.29748e-06
1.58143e-06
1.8614e-06
2.12901e-06
2.3651e-06
2.53908e-06
2.60554e-06
2.50682e-06
2.51321e-06
2.62992e-06
2.60013e-06
2.45699e-06
2.23879e-06
1.97729e-06
1.69247e-06
1.39699e-06
1.09375e-06
8.03188e-07
8.37721e-09
1.42316e-08
1.75995e-08
1.95423e-08
2.03902e-08
2.00204e-08
1.93699e-08
1.91467e-08
1.94248e-08
1.98495e-08
1.95651e-08
1.88549e-08
1.86664e-08
1.92301e-08
2.00461e-08
1.99466e-08
1.87435e-08
1.66291e-08
1.30466e-08
7.21662e-09
1.50314e-08
2.24465e-08
2.50309e-08
2.6205e-08
2.68518e-08
2.57893e-08
2.31609e-08
2.16971e-08
2.18711e-08
2.31112e-08
2.31033e-08
2.24186e-08
2.29438e-08
2.47545e-08
2.62556e-08
2.62033e-08
2.54313e-08
2.40682e-08
2.04217e-08
1.41232e-08
2.46335e-08
3.49965e-08
3.80846e-08
3.81617e-08
3.82795e-08
3.54543e-08
2.84733e-08
2.57717e-08
2.54526e-08
2.68209e-08
2.80817e-08
2.95202e-08
3.23611e-08
3.7305e-08
4.15603e-08
4.22721e-08
4.24807e-08
4.2238e-08
3.67498e-08
2.24922e-08
6.88955e-08
8.22956e-08
8.32577e-08
8.00886e-08
7.21186e-08
6.13448e-08
4.59325e-08
3.77947e-08
3.33145e-08
3.36396e-08
3.65147e-08
4.13403e-08
4.87874e-08
5.94722e-08
7.03724e-08
8.026e-08
8.79483e-08
9.39137e-08
9.87021e-08
8.82822e-08
1.58852e-07
1.49676e-07
1.31025e-07
1.13517e-07
1.01046e-07
9.47256e-08
8.46998e-08
6.86429e-08
5.25167e-08
4.51449e-08
4.96818e-08
6.06811e-08
7.2987e-08
8.46608e-08
9.59222e-08
1.10217e-07
1.29426e-07
1.54049e-07
1.78238e-07
1.87972e-07
2.47621e-07
2.11476e-07
1.71315e-07
1.40302e-07
1.17861e-07
1.00536e-07
8.59413e-08
7.49994e-08
6.86443e-08
6.34946e-08
6.42665e-08
7.16909e-08
8.33562e-08
9.77275e-08
1.1401e-07
1.33925e-07
1.60713e-07
1.95014e-07
2.38439e-07
2.82704e-07
3.69275e-07
3.0052e-07
2.39033e-07
1.9232e-07
1.64504e-07
1.44808e-07
1.27021e-07
1.11708e-07
1.01266e-07
1.00472e-07
1.04909e-07
1.16819e-07
1.34098e-07
1.52276e-07
1.70948e-07
1.93583e-07
2.26775e-07
2.73809e-07
3.3287e-07
4.10618e-07
5.09668e-07
4.33658e-07
3.90219e-07
3.39623e-07
3.15364e-07
3.07908e-07
3.06916e-07
3.03076e-07
2.81793e-07
2.45565e-07
2.43681e-07
3.01438e-07
3.44309e-07
3.59595e-07
3.6638e-07
3.74924e-07
4.14915e-07
4.50565e-07
4.79037e-07
5.59228e-07
6.74596e-07
7.11209e-07
8.89304e-07
1.13709e-06
1.29957e-06
1.49055e-06
1.66645e-06
1.74442e-06
1.62374e-06
1.33701e-06
1.30105e-06
1.62375e-06
1.83483e-06
1.81729e-06
1.67658e-06
1.52456e-06
1.27797e-06
9.95506e-07
7.824e-07
7.35308e-07
8.93436e-07
1.23134e-06
1.58143e-06
1.93241e-06
2.2866e-06
2.63902e-06
2.96488e-06
3.2192e-06
3.33685e-06
3.26201e-06
3.2687e-06
3.36878e-06
3.29861e-06
3.08422e-06
2.78101e-06
2.43383e-06
2.06826e-06
1.69791e-06
1.32516e-06
9.64565e-07
8.24211e-09
1.4569e-08
1.82657e-08
2.03902e-08
2.13192e-08
2.12783e-08
2.11323e-08
2.14491e-08
2.24292e-08
2.36453e-08
2.35925e-08
2.25517e-08
2.20638e-08
2.21631e-08
2.24784e-08
2.20776e-08
2.05562e-08
1.79612e-08
1.39143e-08
7.22041e-09
1.41367e-08
2.2234e-08
2.50825e-08
2.68518e-08
2.75758e-08
2.63062e-08
2.46808e-08
2.44759e-08
2.62913e-08
2.96329e-08
2.95502e-08
2.71305e-08
2.61501e-08
2.68021e-08
2.79339e-08
2.7903e-08
2.655e-08
2.4537e-08
2.09068e-08
1.30422e-08
2.39417e-08
3.09598e-08
3.5627e-08
3.82796e-08
3.89372e-08
3.42307e-08
2.95298e-08
2.84347e-08
2.99082e-08
3.33251e-08
3.42009e-08
3.37834e-08
3.47935e-08
3.78391e-08
4.17932e-08
4.33444e-08
4.17945e-08
3.87123e-08
3.25186e-08
2.23701e-08
3.97321e-08
6.44111e-08
7.23526e-08
7.21186e-08
6.71186e-08
5.63363e-08
4.45495e-08
3.88973e-08
3.69267e-08
4.03328e-08
4.24008e-08
4.42896e-08
4.95204e-08
5.78815e-08
6.75754e-08
7.54892e-08
8.04804e-08
8.0886e-08
7.4547e-08
5.54886e-08
1.31656e-07
1.14635e-07
1.06509e-07
1.01046e-07
9.78491e-08
9.34194e-08
8.21626e-08
6.65412e-08
5.39325e-08
5.31314e-08
5.57685e-08
6.15386e-08
7.29903e-08
8.49447e-08
9.42215e-08
1.02236e-07
1.1111e-07
1.22394e-07
1.37308e-07
1.53873e-07
2.3718e-07
1.90264e-07
1.43917e-07
1.17861e-07
1.01512e-07
8.97672e-08
7.99399e-08
7.34059e-08
7.06656e-08
7.36312e-08
7.30007e-08
7.20739e-08
7.84749e-08
8.78273e-08
9.91523e-08
1.14055e-07
1.35342e-07
1.67872e-07
2.18695e-07
2.69294e-07
3.91491e-07
3.08544e-07
2.13299e-07
1.64503e-07
1.38508e-07
1.22713e-07
1.11389e-07
1.03872e-07
1.02825e-07
1.1528e-07
1.23324e-07
1.23701e-07
1.28667e-07
1.36214e-07
1.47317e-07
1.64733e-07
1.95138e-07
2.51351e-07
3.39655e-07
4.30625e-07
5.66805e-07
4.745e-07
3.79547e-07
3.15364e-07
3.1496e-07
3.34877e-07
3.59803e-07
3.7611e-07
3.62817e-07
3.23332e-07
3.2826e-07
4.00893e-07
4.40894e-07
4.33389e-07
4.06424e-07
3.80831e-07
3.80684e-07
4.44233e-07
5.161e-07
6.15685e-07
7.719e-07
8.07057e-07
1.03369e-06
1.29957e-06
1.67165e-06
2.07583e-06
2.40376e-06
2.57792e-06
2.44322e-06
2.01765e-06
1.97079e-06
2.44221e-06
2.70903e-06
2.60297e-06
2.2852e-06
1.89265e-06
1.55778e-06
1.16087e-06
8.80762e-07
8.34065e-07
1.03639e-06
1.44363e-06
1.8614e-06
2.2866e-06
2.74204e-06
3.21355e-06
3.66174e-06
4.03144e-06
4.24397e-06
4.23572e-06
4.24732e-06
4.27676e-06
4.11593e-06
3.79296e-06
3.37113e-06
2.90624e-06
2.44174e-06
1.98987e-06
1.5438e-06
1.11031e-06
7.88518e-09
1.4035e-08
1.77691e-08
2.00204e-08
2.12783e-08
2.19369e-08
2.25466e-08
2.35317e-08
2.54105e-08
2.78308e-08
2.8184e-08
2.64468e-08
2.52739e-08
2.45079e-08
2.38281e-08
2.2706e-08
2.07647e-08
1.78463e-08
1.35337e-08
6.88293e-09
1.31673e-08
2.09378e-08
2.41071e-08
2.57894e-08
2.63063e-08
2.59295e-08
2.5885e-08
2.736e-08
3.15597e-08
3.84639e-08
3.81163e-08
3.23713e-08
2.89713e-08
2.7815e-08
2.77651e-08
2.75021e-08
2.62354e-08
2.38865e-08
2.00384e-08
1.21384e-08
2.23751e-08
2.82558e-08
3.33463e-08
3.54544e-08
3.42307e-08
3.14574e-08
3.01041e-08
3.06694e-08
3.4612e-08
4.16256e-08
4.17471e-08
3.79753e-08
3.61991e-08
3.67181e-08
3.86551e-08
4.03465e-08
3.98204e-08
3.61397e-08
2.92489e-08
2.14994e-08
3.06424e-08
5.1215e-08
6.06696e-08
6.13448e-08
5.63363e-08
4.7963e-08
4.2194e-08
3.92409e-08
4.17596e-08
5.10933e-08
5.12481e-08
4.69258e-08
4.82417e-08
5.34113e-08
6.05342e-08
6.72203e-08
7.10857e-08
6.97691e-08
5.87579e-08
3.12683e-08
1.04537e-07
9.36846e-08
9.3822e-08
9.47256e-08
9.34194e-08
8.67104e-08
7.45497e-08
6.14282e-08
5.52426e-08
6.56261e-08
6.48765e-08
6.14544e-08
6.92029e-08
8.05974e-08
9.01524e-08
9.60458e-08
9.92249e-08
1.01972e-07
1.07072e-07
1.25937e-07
2.22941e-07
1.58061e-07
1.1949e-07
1.00536e-07
8.97671e-08
8.20687e-08
7.59847e-08
7.26416e-08
7.3842e-08
8.95455e-08
8.78274e-08
7.50273e-08
7.5889e-08
8.15834e-08
8.90841e-08
9.93631e-08
1.14663e-07
1.40189e-07
1.88127e-07
2.5229e-07
4.07555e-07
3.02363e-07
1.92279e-07
1.44808e-07
1.22713e-07
1.11697e-07
1.06415e-07
1.06438e-07
1.16345e-07
1.50589e-07
1.61705e-07
1.39475e-07
1.31475e-07
1.29835e-07
1.34199e-07
1.46038e-07
1.70885e-07
2.22139e-07
3.32784e-07
4.43064e-07
6.13266e-07
5.07412e-07
3.46431e-07
3.07908e-07
3.34877e-07
3.84352e-07
4.38598e-07
4.73856e-07
4.56413e-07
4.05788e-07
4.17924e-07
4.99652e-07
5.4754e-07
5.23879e-07
4.64891e-07
4.05355e-07
3.72167e-07
4.14242e-07
5.43601e-07
6.59326e-07
8.55247e-07
8.93797e-07
1.17628e-06
1.49055e-06
2.07583e-06
2.67422e-06
3.18783e-06
3.44925e-06
3.16454e-06
2.46607e-06
2.41471e-06
3.08648e-06
3.54436e-06
3.41608e-06
2.92379e-06
2.30142e-06
1.72436e-06
1.29649e-06
9.65039e-07
9.15924e-07
1.16197e-06
1.63943e-06
2.12901e-06
2.63902e-06
3.21355e-06
3.81931e-06
4.41265e-06
4.92673e-06
5.27166e-06
5.38594e-06
5.40964e-06
5.29765e-06
4.99891e-06
4.53756e-06
3.97648e-06
3.37992e-06
2.79787e-06
2.26019e-06
1.74042e-06
1.23539e-06
7.48527e-09
1.30995e-08
1.68492e-08
1.937e-08
2.11324e-08
2.25466e-08
2.40463e-08
2.59057e-08
2.91088e-08
3.408e-08
3.49978e-08
3.11164e-08
2.85062e-08
2.64245e-08
2.45167e-08
2.24327e-08
1.99201e-08
1.67567e-08
1.2505e-08
6.54067e-09
1.27901e-08
1.79456e-08
2.1015e-08
2.3161e-08
2.46808e-08
2.5885e-08
2.76308e-08
3.16553e-08
4.05378e-08
5.90136e-08
5.77834e-08
4.08926e-08
3.27319e-08
2.8823e-08
2.69003e-08
2.53559e-08
2.35217e-08
2.10591e-08
1.761e-08
1.18375e-08
2.1527e-08
2.28821e-08
2.63623e-08
2.84733e-08
2.95298e-08
3.01041e-08
3.1141e-08
3.44028e-08
4.39736e-08
6.73544e-08
6.53433e-08
4.68901e-08
3.89252e-08
3.5944e-08
3.49246e-08
3.40762e-08
3.25163e-08
2.92068e-08
2.41545e-08
2.10346e-08
3.0785e-08
3.8483e-08
4.46114e-08
4.59325e-08
4.45495e-08
4.2194e-08
4.05098e-08
4.18164e-08
5.48978e-08
9.99507e-08
9.28129e-08
5.71934e-08
4.83313e-08
4.87186e-08
5.16443e-08
5.45038e-08
5.56906e-08
5.31715e-08
4.38104e-08
2.92011e-08
7.32701e-08
7.5371e-08
8.18565e-08
8.46998e-08
8.21625e-08
7.45497e-08
6.46365e-08
5.76747e-08
6.75699e-08
1.36891e-07
1.23438e-07
6.97325e-08
6.46649e-08
7.22701e-08
8.12534e-08
8.75542e-08
8.96279e-08
8.81401e-08
8.56107e-08
9.13486e-08
2.06287e-07
1.29396e-07
9.8173e-08
8.59412e-08
7.99398e-08
7.59846e-08
7.3178e-08
7.2324e-08
8.61081e-08
1.75115e-07
1.61193e-07
8.55153e-08
7.46014e-08
7.72299e-08
8.17773e-08
8.78141e-08
9.71622e-08
1.14185e-07
1.50867e-07
2.29728e-07
4.14527e-07
2.71822e-07
1.67042e-07
1.27021e-07
1.11389e-07
1.06415e-07
1.07575e-07
1.15703e-07
1.44522e-07
2.63217e-07
2.77582e-07
1.67182e-07
1.38989e-07
1.28841e-07
1.26562e-07
1.31882e-07
1.49466e-07
1.93173e-07
3.04743e-07
4.45144e-07
6.44258e-07
5.18456e-07
3.25528e-07
3.06916e-07
3.59803e-07
4.38598e-07
5.17731e-07
5.5692e-07
5.15744e-07
5.08537e-07
5.3357e-07
5.52188e-07
6.17469e-07
5.98008e-07
5.17948e-07
4.27986e-07
3.62425e-07
3.68546e-07
5.53899e-07
6.86227e-07
9.16843e-07
9.52466e-07
1.2464e-06
1.66645e-06
2.40376e-06
3.18783e-06
3.86572e-06
4.11143e-06
3.43757e-06
2.84107e-06
2.83681e-06
3.31047e-06
4.05784e-06
4.03104e-06
3.4244e-06
2.63391e-06
1.87009e-06
1.39381e-06
1.02357e-06
9.74485e-07
1.26349e-06
1.80597e-06
2.3651e-06
2.96488e-06
3.66174e-06
4.41265e-06
5.17153e-06
5.87101e-06
6.44254e-06
6.88698e-06
6.9403e-06
6.47635e-06
5.92527e-06
5.27386e-06
4.55175e-06
3.81596e-06
3.11454e-06
2.49131e-06
1.90269e-06
1.33343e-06
7.12651e-09
1.23451e-08
1.62458e-08
1.91468e-08
2.14492e-08
2.35317e-08
2.59057e-08
2.92242e-08
3.48896e-08
4.392e-08
4.54564e-08
3.74537e-08
3.21952e-08
2.82193e-08
2.50295e-08
2.20716e-08
1.90302e-08
1.56254e-08
1.15004e-08
6.23461e-09
1.24138e-08
1.53697e-08
1.86458e-08
2.16972e-08
2.4476e-08
2.736e-08
3.16554e-08
4.11964e-08
5.97176e-08
9.05591e-08
8.70591e-08
5.79328e-08
4.05048e-08
3.14666e-08
2.71257e-08
2.41421e-08
2.13621e-08
1.83185e-08
1.49688e-08
1.15029e-08
2.08859e-08
1.9716e-08
2.27629e-08
2.57717e-08
2.84347e-08
3.06694e-08
3.44028e-08
4.49048e-08
7.26431e-08
1.90157e-07
1.83969e-07
7.64138e-08
4.82948e-08
3.77143e-08
3.35924e-08
3.09764e-08
2.80037e-08
2.42981e-08
2.04602e-08
2.06206e-08
2.98754e-08
2.98138e-08
3.48043e-08
3.77947e-08
3.88973e-08
3.92409e-08
4.18164e-08
5.61466e-08
1.17574e-07
4.48827e-07
4.29894e-07
1.19045e-07
5.95083e-08
4.71384e-08
4.54662e-08
4.54295e-08
4.4024e-08
3.9807e-08
3.29295e-08
3.0281e-08
4.76136e-08
5.53079e-08
6.51487e-08
6.86429e-08
6.65412e-08
6.14281e-08
5.76747e-08
6.93647e-08
1.78573e-07
8.8061e-07
8.26018e-07
1.69818e-07
7.21798e-08
6.39474e-08
6.84797e-08
7.35155e-08
7.54414e-08
7.20292e-08
6.41646e-08
5.94847e-08
1.89821e-07
1.08735e-07
8.21012e-08
7.49993e-08
7.34058e-08
7.26415e-08
7.23239e-08
8.36337e-08
2.24314e-07
1.26919e-06
1.19263e-06
2.08893e-07
8.40517e-08
7.50807e-08
7.67262e-08
7.92817e-08
8.36888e-08
9.42479e-08
1.24816e-07
2.09052e-07
4.10847e-07
2.35013e-07
1.4269e-07
1.11708e-07
1.03871e-07
1.06438e-07
1.15703e-07
1.42036e-07
3.13796e-07
1.48599e-06
1.50604e-06
3.33326e-07
1.62716e-07
1.34306e-07
1.24019e-07
1.21286e-07
1.29992e-07
1.63328e-07
2.60868e-07
4.36425e-07
6.55086e-07
5.03824e-07
3.05759e-07
3.03076e-07
3.76109e-07
4.73855e-07
5.5692e-07
5.71334e-07
6.11735e-07
1.50765e-06
1.58124e-06
6.50267e-07
6.13451e-07
6.15759e-07
5.40522e-07
4.35575e-07
3.49646e-07
3.4121e-07
5.37293e-07
6.91839e-07
9.47675e-07
9.68082e-07
1.23496e-06
1.74442e-06
2.57792e-06
3.44925e-06
4.11143e-06
3.94309e-06
3.40256e-06
4.5962e-06
4.6752e-06
3.43218e-06
3.84972e-06
4.14192e-06
3.62672e-06
2.78428e-06
1.92067e-06
1.373e-06
1.03273e-06
9.99775e-07
1.32992e-06
1.92249e-06
2.53908e-06
3.2192e-06
4.03144e-06
4.92672e-06
5.87101e-06
6.83874e-06
7.91479e-06
9.23188e-06
9.3256e-06
7.99986e-06
6.90579e-06
5.95471e-06
5.04116e-06
4.16422e-06
3.35194e-06
2.6536e-06
2.01124e-06
1.3945e-06
6.859e-09
1.18353e-08
1.60029e-08
1.94249e-08
2.24293e-08
2.54106e-08
2.91088e-08
3.48897e-08
4.18046e-08
5.21636e-08
5.52211e-08
4.40459e-08
3.68002e-08
3.02769e-08
2.57231e-08
2.20299e-08
1.85751e-08
1.49862e-08
1.09243e-08
6.07291e-09
1.23511e-08
1.41777e-08
1.7814e-08
2.18711e-08
2.62914e-08
3.15598e-08
4.05378e-08
5.97175e-08
8.58134e-08
4.65057e-07
4.63638e-07
8.61136e-08
5.62575e-08
3.7939e-08
2.9505e-08
2.46512e-08
2.07439e-08
1.7122e-08
1.37409e-08
1.15513e-08
2.12113e-08
1.87599e-08
2.18017e-08
2.54526e-08
2.99082e-08
3.4612e-08
4.39735e-08
7.26429e-08
2.2489e-07
2.2044e-06
2.27706e-06
2.46082e-07
7.74908e-08
4.60239e-08
3.57679e-08
3.09629e-08
2.66254e-08
2.29005e-08
1.96221e-08
2.13136e-08
3.02426e-08
2.63299e-08
2.99166e-08
3.33145e-08
3.69267e-08
4.17595e-08
5.48975e-08
1.17573e-07
5.80349e-07
4.97943e-06
5.19018e-06
6.32575e-07
1.24421e-07
5.79017e-08
4.53005e-08
4.13273e-08
3.78565e-08
3.3997e-08
2.88434e-08
3.14908e-08
4.06995e-08
4.10334e-08
4.90268e-08
5.25168e-08
5.39325e-08
5.52425e-08
6.75696e-08
1.78572e-07
1.23645e-06
8.666e-06
9.06367e-06
1.30317e-06
1.79413e-07
7.05432e-08
5.98506e-08
5.95629e-08
5.96403e-08
5.66166e-08
4.72076e-08
4.79044e-08
1.74162e-07
9.84763e-08
7.3327e-08
6.86442e-08
7.06655e-08
7.38419e-08
8.61078e-08
2.24313e-07
1.87108e-06
1.20365e-05
1.25276e-05
1.90785e-06
2.20078e-07
8.73744e-08
7.60803e-08
7.39587e-08
7.43535e-08
8.21144e-08
1.10936e-07
1.9214e-07
3.94429e-07
2.02021e-07
1.23466e-07
1.01266e-07
1.02825e-07
1.16345e-07
1.44522e-07
3.13795e-07
2.25809e-06
1.35843e-05
1.41302e-05
2.30625e-06
3.30896e-07
1.59667e-07
1.30781e-07
1.16569e-07
1.15216e-07
1.3941e-07
2.23013e-07
4.17031e-07
6.40619e-07
4.63998e-07
2.772e-07
2.81793e-07
3.62817e-07
4.56413e-07
5.15744e-07
6.11734e-07
2.1916e-06
1.22243e-05
1.26914e-05
2.24852e-06
6.4709e-07
5.52845e-07
5.01338e-07
4.06723e-07
3.17564e-07
3.0657e-07
4.96566e-07
6.72008e-07
9.35932e-07
9.22218e-07
1.09072e-06
1.62374e-06
2.44322e-06
3.16454e-06
3.43758e-06
3.40256e-06
4.92133e-06
1.01162e-05
1.04157e-05
5.05541e-06
3.43025e-06
3.43198e-06
3.24944e-06
2.58622e-06
1.75883e-06
1.21547e-06
9.77274e-07
9.81136e-07
1.34307e-06
1.95811e-06
2.60553e-06
3.33685e-06
4.24397e-06
5.27165e-06
6.44253e-06
7.91479e-06
1.0014e-05
1.26933e-05
1.28206e-05
1.01649e-05
8.03176e-06
6.53463e-06
5.3689e-06
4.35394e-06
3.4503e-06
2.70637e-06
2.03753e-06
1.4016e-06
6.70444e-09
1.15618e-08
1.59324e-08
1.98496e-08
2.36454e-08
2.78309e-08
3.40801e-08
4.39201e-08
5.21637e-08
5.59649e-08
5.88459e-08
5.40635e-08
4.33876e-08
3.31709e-08
2.67243e-08
2.23386e-08
1.85407e-08
1.48223e-08
1.07822e-08
6.05922e-09
1.25568e-08
1.38712e-08
1.79385e-08
2.31113e-08
2.96331e-08
3.8464e-08
5.90137e-08
9.05593e-08
4.65058e-07
7.10428e-07
7.11536e-07
5.13264e-07
8.68928e-08
5.24242e-08
3.41356e-08
2.658e-08
2.12067e-08
1.69313e-08
1.34011e-08
1.18622e-08
2.19794e-08
1.89814e-08
2.22942e-08
2.6821e-08
3.33251e-08
4.16257e-08
6.73544e-08
1.90157e-07
2.2044e-06
1.75604e-06
1.74471e-06
2.55797e-06
2.14376e-07
6.93593e-08
4.18249e-08
3.33724e-08
2.70535e-08
2.28674e-08
1.99023e-08
2.25282e-08
3.16795e-08
2.59199e-08
2.89368e-08
3.36397e-08
4.03329e-08
5.10934e-08
9.99506e-08
4.48826e-07
4.97942e-06
3.32797e-06
3.29956e-06
5.75832e-06
5.21628e-07
1.05446e-07
5.39939e-08
4.27322e-08
3.58752e-08
3.12964e-08
2.82882e-08
3.35602e-08
4.22723e-08
3.74025e-08
4.03059e-08
4.5145e-08
5.31314e-08
6.56261e-08
1.3689e-07
8.80607e-07
8.66599e-06
5.43981e-06
5.39268e-06
9.85632e-06
9.72389e-07
1.40838e-07
6.82101e-08
5.62994e-08
4.84635e-08
4.4864e-08
4.20575e-08
4.846e-08
1.62451e-07
9.17023e-08
6.49006e-08
6.34947e-08
7.36313e-08
8.95455e-08
1.75114e-07
1.26919e-06
1.20364e-05
7.90502e-06
7.84018e-06
1.33746e-05
1.36437e-06
1.80342e-07
9.32517e-08
7.63001e-08
6.64223e-08
7.1143e-08
1.02898e-07
1.77812e-07
3.666e-07
1.87406e-07
1.1551e-07
1.00472e-07
1.1528e-07
1.50589e-07
2.63215e-07
1.48599e-06
1.35843e-05
1.02414e-05
1.01515e-05
1.481e-05
1.58455e-06
2.78285e-07
1.60669e-07
1.24183e-07
1.1043e-07
1.26572e-07
2.01333e-07
3.8686e-07
5.94683e-07
4.07547e-07
2.42269e-07
2.45565e-07
3.23332e-07
4.05788e-07
5.08536e-07
1.50765e-06
1.22242e-05
1.15227e-05
1.14012e-05
1.31201e-05
1.60018e-06
5.42807e-07
4.34708e-07
3.51093e-07
2.68854e-07
2.63313e-07
4.33111e-07
6.24978e-07
8.67681e-07
7.98146e-07
8.67686e-07
1.33701e-06
2.01765e-06
2.46607e-06
2.84107e-06
4.59619e-06
1.01162e-05
1.17956e-05
1.17159e-05
1.06579e-05
4.75939e-06
2.89255e-06
2.50469e-06
2.1e-06
1.41971e-06
9.47008e-07
8.46729e-07
9.11728e-07
1.27118e-06
1.8732e-06
2.50682e-06
3.26201e-06
4.23572e-06
5.38594e-06
6.88698e-06
9.23187e-06
1.26933e-05
1.41893e-05
1.41239e-05
1.2955e-05
9.42346e-06
7.01201e-06
5.48037e-06
4.33012e-06
3.35963e-06
2.60321e-06
1.95065e-06
1.33003e-06
6.56785e-09
1.12629e-08
1.5577e-08
1.95652e-08
2.35926e-08
2.81841e-08
3.49979e-08
4.54565e-08
5.52212e-08
5.8846e-08
5.83231e-08
5.4246e-08
4.38743e-08
3.33444e-08
2.66271e-08
2.21399e-08
1.82847e-08
1.45835e-08
1.06229e-08
6.02391e-09
1.26353e-08
1.37709e-08
1.79155e-08
2.31034e-08
2.95503e-08
3.81165e-08
5.77836e-08
8.70593e-08
4.63639e-07
7.11536e-07
7.2363e-07
5.29038e-07
8.83531e-08
5.34089e-08
3.43514e-08
2.65891e-08
2.11186e-08
1.68229e-08
1.32253e-08
1.19308e-08
2.23883e-08
1.97879e-08
2.34801e-08
2.80819e-08
3.42011e-08
4.17474e-08
6.53438e-08
1.83969e-07
2.27707e-06
1.74471e-06
1.78248e-06
2.71272e-06
2.19482e-07
6.90794e-08
4.25259e-08
3.4395e-08
2.82502e-08
2.38471e-08
2.04398e-08
2.2983e-08
3.23008e-08
2.75631e-08
3.17757e-08
3.65148e-08
4.24011e-08
5.12485e-08
9.28137e-08
4.29895e-07
5.19019e-06
3.29956e-06
3.36098e-06
6.0718e-06
5.1352e-07
1.00072e-07
5.46191e-08
4.50215e-08
3.87143e-08
3.37012e-08
2.93744e-08
3.39557e-08
4.16998e-08
4.05881e-08
4.59981e-08
4.96818e-08
5.57687e-08
6.4877e-08
1.23439e-07
8.26022e-07
9.0637e-06
5.39268e-06
5.47194e-06
1.03137e-05
9.17131e-07
1.29671e-07
6.8506e-08
5.91833e-08
5.3334e-08
4.97357e-08
4.43999e-08
4.65562e-08
1.63395e-07
9.42128e-08
6.78115e-08
6.42666e-08
7.30011e-08
8.7828e-08
1.61195e-07
1.19264e-06
1.25277e-05
7.84018e-06
7.92796e-06
1.38275e-05
1.27139e-06
1.67367e-07
9.25236e-08
7.70856e-08
6.84964e-08
7.41049e-08
1.03978e-07
1.74334e-07
3.62828e-07
1.87025e-07
1.1707e-07
1.0491e-07
1.23324e-07
1.61706e-07
2.77584e-07
1.50605e-06
1.41302e-05
1.01515e-05
1.02371e-05
1.52644e-05
1.56837e-06
2.82869e-07
1.66995e-07
1.29803e-07
1.14224e-07
1.27604e-07
1.97992e-07
3.76126e-07
5.89005e-07
4.00384e-07
2.38351e-07
2.43681e-07
3.2826e-07
4.17924e-07
5.33571e-07
1.58125e-06
1.26914e-05
1.14012e-05
1.14831e-05
1.34572e-05
1.62916e-06
5.61506e-07
4.45512e-07
3.55775e-07
2.67428e-07
2.57961e-07
4.20422e-07
6.10305e-07
8.6241e-07
7.87065e-07
8.44341e-07
1.30105e-06
1.97079e-06
2.41471e-06
2.83681e-06
4.67522e-06
1.04157e-05
1.17159e-05
1.18231e-05
1.08943e-05
4.8296e-06
2.91918e-06
2.49276e-06
2.07427e-06
1.38981e-06
9.23525e-07
8.28714e-07
8.94831e-07
1.27178e-06
1.8776e-06
2.51321e-06
3.26871e-06
4.24733e-06
5.40964e-06
6.94031e-06
9.32561e-06
1.28206e-05
1.41239e-05
1.41797e-05
1.30671e-05
9.50511e-06
7.07047e-06
5.51368e-06
4.34505e-06
3.36124e-06
2.5966e-06
1.93801e-06
1.31456e-06
6.40096e-09
1.09029e-08
1.50551e-08
1.8855e-08
2.25518e-08
2.64469e-08
3.11165e-08
3.74538e-08
4.40459e-08
5.40635e-08
5.42461e-08
4.32918e-08
3.60374e-08
2.91711e-08
2.44803e-08
2.0808e-08
1.74228e-08
1.39812e-08
1.01703e-08
5.84714e-09
1.24033e-08
1.39161e-08
1.79548e-08
2.24187e-08
2.71306e-08
3.23715e-08
4.08928e-08
5.7933e-08
8.61137e-08
5.13262e-07
5.2904e-07
9.04854e-08
5.72175e-08
3.785e-08
2.91027e-08
2.41188e-08
2.00879e-08
1.64201e-08
1.29916e-08
1.15147e-08
2.18033e-08
2.08888e-08
2.5211e-08
2.95203e-08
3.37836e-08
3.79755e-08
4.68905e-08
7.64143e-08
2.46082e-07
2.55796e-06
2.71273e-06
2.8101e-07
8.31625e-08
4.84425e-08
3.83561e-08
3.37273e-08
2.93091e-08
2.50616e-08
2.09503e-08
2.20016e-08
3.18298e-08
3.03139e-08
3.68375e-08
4.13404e-08
4.42897e-08
4.69261e-08
5.71939e-08
1.19046e-07
6.32575e-07
5.75831e-06
6.0718e-06
7.04068e-07
1.27686e-07
6.04202e-08
4.97913e-08
4.71285e-08
4.38251e-08
3.86896e-08
3.15597e-08
3.24926e-08
4.80258e-08
4.76534e-08
5.67649e-08
6.06812e-08
6.15387e-08
6.14546e-08
6.97329e-08
1.6982e-07
1.30317e-06
9.85632e-06
1.03137e-05
1.38526e-06
1.73527e-07
7.30815e-08
6.54471e-08
6.57794e-08
6.50466e-08
6.08057e-08
5.32061e-08
5.282e-08
1.80138e-07
1.04869e-07
7.86562e-08
7.16909e-08
7.2074e-08
7.50277e-08
8.55159e-08
2.08895e-07
1.90786e-06
1.33746e-05
1.38275e-05
1.93343e-06
2.06553e-07
8.78925e-08
7.80684e-08
7.59437e-08
7.73944e-08
8.66595e-08
1.14765e-07
1.89613e-07
3.89124e-07
2.08239e-07
1.33605e-07
1.1682e-07
1.23702e-07
1.39476e-07
1.67183e-07
3.33329e-07
2.30626e-06
1.481e-05
1.52645e-05
2.32559e-06
3.34408e-07
1.70497e-07
1.43879e-07
1.30322e-07
1.26412e-07
1.45365e-07
2.18669e-07
4.02942e-07
6.30296e-07
4.46419e-07
2.77883e-07
3.01439e-07
4.00894e-07
4.99652e-07
5.52189e-07
6.50269e-07
2.24853e-06
1.31201e-05
1.34572e-05
2.26822e-06
6.71438e-07
5.78883e-07
5.28706e-07
4.29245e-07
3.28601e-07
3.04732e-07
4.73996e-07
6.53137e-07
9.27681e-07
9.01097e-07
1.08132e-06
1.62376e-06
2.44221e-06
3.08648e-06
3.31047e-06
3.43218e-06
5.05542e-06
1.06579e-05
1.08943e-05
5.1702e-06
3.51985e-06
3.45173e-06
3.27755e-06
2.61908e-06
1.76103e-06
1.1992e-06
9.53912e-07
9.61537e-07
1.34949e-06
1.97278e-06
2.62993e-06
3.36878e-06
4.27676e-06
5.29766e-06
6.47636e-06
7.99987e-06
1.01649e-05
1.2955e-05
1.30671e-05
1.03028e-05
8.12876e-06
6.59864e-06
5.41581e-06
4.38684e-06
3.46681e-06
2.7076e-06
2.02846e-06
1.38884e-06
6.36126e-09
1.08694e-08
1.49774e-08
1.86664e-08
2.20639e-08
2.5274e-08
2.85063e-08
3.21953e-08
3.68003e-08
4.33876e-08
4.38744e-08
3.60374e-08
3.03459e-08
2.58738e-08
2.24723e-08
1.9464e-08
1.64358e-08
1.32014e-08
9.58064e-09
5.57182e-09
1.23615e-08
1.51346e-08
1.91823e-08
2.29439e-08
2.61502e-08
2.89715e-08
3.27321e-08
4.05049e-08
5.62574e-08
8.68927e-08
8.83532e-08
5.72177e-08
3.92179e-08
2.99905e-08
2.56407e-08
2.27023e-08
1.98986e-08
1.6887e-08
1.35561e-08
1.11305e-08
2.23688e-08
2.38511e-08
2.85571e-08
3.23612e-08
3.47937e-08
3.61993e-08
3.89255e-08
4.82951e-08
7.74909e-08
2.14376e-07
2.19482e-07