/*--------------------------------*- C++ -*----------------------------------*\
| =========                 |                                                 |
| \\      /  F ield         | OpenFOAM: The Open Source CFD Toolbox           |
|  \\    /   O peration     | Version:  1.7.1                                 |
|   \\  /    A nd           | Web:      www.OpenFOAM.com                      |
|    \\/     M anipulation  |                                                 |
\*---------------------------------------------------------------------------*/
FoamFile
{
    version     2.0;
    format      ascii;
    class       volScalarField;
    location    "1600";
    object      k;
}
// * * * * * * * * * * * * * * * * * * * * * * * * * * * * * * * * * * * * * //

dimensions      [0 2 -2 0 0 0 0];

internalField   nonuniform List<scalar> 
4000
(
3.07399e-06
3.13233e-06
3.03238e-06
3.0133e-06
2.97737e-06
2.88992e-06
2.79024e-06
2.69901e-06
2.63035e-06
2.5903e-06
2.55463e-06
2.51095e-06
2.50195e-06
2.54615e-06
2.62885e-06
2.66957e-06
2.64942e-06
2.6926e-06
2.6944e-06
2.51937e-06
4.2456e-06
4.50963e-06
4.42272e-06
4.44507e-06
4.26234e-06
4.06403e-06
3.98607e-06
3.9076e-06
3.8948e-06
3.93784e-06
3.95393e-06
3.90544e-06
3.89781e-06
3.93165e-06
4.02879e-06
4.16012e-06
4.25286e-06
4.25449e-06
4.3734e-06
3.7407e-06
9.48954e-06
6.71893e-06
5.87995e-06
6.17877e-06
6.05995e-06
5.79185e-06
5.64199e-06
5.52864e-06
5.58544e-06
5.71865e-06
5.78922e-06
5.68975e-06
5.79018e-06
5.9332e-06
6.09049e-06
6.30243e-06
6.04718e-06
6.08229e-06
8.49909e-06
1.17614e-05
2.19172e-05
1.98356e-05
1.64208e-05
1.22845e-05
8.49265e-06
7.14792e-06
7.1645e-06
7.02438e-06
7.08098e-06
7.30117e-06
7.39475e-06
7.32622e-06
7.54365e-06
7.50031e-06
8.28592e-06
1.10484e-05
1.4763e-05
1.87656e-05
2.19938e-05
2.41865e-05
2.66759e-05
2.57894e-05
2.39427e-05
2.14439e-05
1.89423e-05
1.62453e-05
1.28282e-05
9.63905e-06
8.66782e-06
8.8755e-06
8.79265e-06
9.67446e-06
1.23267e-05
1.53933e-05
1.81829e-05
2.07732e-05
2.33878e-05
2.586e-05
2.78515e-05
2.88959e-05
2.94607e-05
2.99407e-05
2.96074e-05
2.88463e-05
2.80426e-05
2.6923e-05
2.55829e-05
2.42128e-05
2.28551e-05
2.1798e-05
2.18657e-05
2.33357e-05
2.51905e-05
2.6972e-05
2.85119e-05
2.97034e-05
3.07287e-05
3.16939e-05
3.21953e-05
3.1766e-05
3.16784e-05
3.39546e-05
3.59397e-05
3.76628e-05
3.91617e-05
4.02256e-05
4.06803e-05
4.04335e-05
3.93399e-05
3.74513e-05
3.71895e-05
3.89688e-05
4.05849e-05
4.14615e-05
4.15214e-05
4.087e-05
3.97185e-05
3.82606e-05
3.64435e-05
3.40903e-05
3.40008e-05
3.83261e-05
4.27218e-05
4.6691e-05
5.01114e-05
5.28028e-05
5.45529e-05
5.51465e-05
5.43143e-05
5.16732e-05
5.13459e-05
5.37263e-05
5.51856e-05
5.52915e-05
5.41559e-05
5.19842e-05
4.89663e-05
4.5276e-05
4.09973e-05
3.65447e-05
3.68439e-05
4.35011e-05
5.0246e-05
5.62862e-05
6.15591e-05
6.5894e-05
6.89973e-05
7.05111e-05
6.9902e-05
6.64424e-05
6.61778e-05
6.9487e-05
7.08583e-05
7.01038e-05
6.76123e-05
6.37857e-05
5.88752e-05
5.30572e-05
4.63745e-05
3.95092e-05
4.0718e-05
5.04282e-05
5.97682e-05
6.78677e-05
7.48957e-05
8.07978e-05
8.54073e-05
8.83453e-05
8.88988e-05
8.56703e-05
8.56977e-05
8.91654e-05
8.93509e-05
8.71187e-05
8.30921e-05
7.76102e-05
7.08481e-05
6.28772e-05
5.35027e-05
4.35247e-05
3.13233e-06
3.72658e-06
4.05445e-06
4.29167e-06
4.35311e-06
4.2453e-06
4.05405e-06
3.89496e-06
3.78616e-06
3.72754e-06
3.66216e-06
3.5824e-06
3.57766e-06
3.71658e-06
3.89259e-06
3.92137e-06
3.8017e-06
3.62481e-06
3.34759e-06
2.66578e-06
4.50964e-06
6.37762e-06
8.10712e-06
8.97039e-06
9.05799e-06
8.79381e-06
8.13e-06
7.44476e-06
7.17135e-06
7.1857e-06
7.18443e-06
7.17855e-06
7.51041e-06
8.08014e-06
8.35597e-06
8.51102e-06
8.4603e-06
7.34621e-06
6.42676e-06
4.39302e-06
6.71891e-06
8.38587e-06
1.17022e-05
1.17136e-05
1.07311e-05
1.03951e-05
9.54569e-06
8.95629e-06
8.94657e-06
9.20493e-06
9.42839e-06
9.54024e-06
1.01087e-05
1.1042e-05
1.1071e-05
1.16085e-05
1.24852e-05
1.00404e-05
8.51918e-06
8.44462e-06
1.98356e-05
2.14577e-05
1.87469e-05
1.64029e-05
1.48005e-05
1.43603e-05
1.24529e-05
1.06959e-05
1.03442e-05
1.05914e-05
1.08832e-05
1.10666e-05
1.22406e-05
1.39449e-05
1.42838e-05
1.57706e-05
1.80204e-05
2.14916e-05
2.47762e-05
2.23142e-05
2.57893e-05
2.90951e-05
2.77128e-05
2.39041e-05
2.00697e-05
1.77603e-05
1.57599e-05
1.34566e-05
1.24363e-05
1.23217e-05
1.25768e-05
1.27082e-05
1.4175e-05
1.61668e-05
1.86965e-05
2.21514e-05
2.6131e-05
2.95054e-05
3.10598e-05
2.82297e-05
2.99407e-05
3.17956e-05
3.17598e-05
3.04015e-05
2.80731e-05
2.44538e-05
2.11459e-05
1.872e-05
1.76043e-05
1.69314e-05
1.7172e-05
1.83186e-05
2.05638e-05
2.37415e-05
2.73402e-05
3.02103e-05
3.22705e-05
3.36699e-05
3.39437e-05
3.25129e-05
3.39546e-05
3.5682e-05
3.74595e-05
3.8851e-05
3.96772e-05
3.89537e-05
3.56294e-05
3.16236e-05
2.80266e-05
2.64185e-05
2.63996e-05
2.88002e-05
3.31835e-05
3.77764e-05
4.07492e-05
4.16893e-05
4.10439e-05
3.9933e-05
3.83491e-05
3.66492e-05
3.83261e-05
4.16062e-05
4.54941e-05
4.95689e-05
5.37029e-05
5.70285e-05
5.83361e-05
5.73332e-05
5.38566e-05
4.84736e-05
4.76808e-05
5.20209e-05
5.59884e-05
5.8141e-05
5.78822e-05
5.56547e-05
5.22662e-05
4.87555e-05
4.49286e-05
4.11637e-05
4.35011e-05
5.14902e-05
5.92637e-05
6.66059e-05
7.39135e-05
8.04667e-05
8.46727e-05
8.56135e-05
8.20673e-05
7.27207e-05
7.15952e-05
8.00925e-05
8.54445e-05
8.59497e-05
8.251e-05
7.68672e-05
7.00937e-05
6.30368e-05
5.5317e-05
4.65495e-05
5.04282e-05
6.21586e-05
7.36574e-05
8.40056e-05
9.33598e-05
0.000101581
0.000108311
0.000112886
0.000114243
0.000110884
0.000111048
0.000114782
0.000114418
0.000110774
0.000104747
9.69645e-05
8.77965e-05
7.7444e-05
6.57628e-05
5.36364e-05
3.03238e-06
4.05446e-06
4.63473e-06
4.93999e-06
5.05846e-06
4.96688e-06
4.79481e-06
4.67881e-06
4.6321e-06
4.61923e-06
4.54883e-06
4.44379e-06
4.43072e-06
4.57532e-06
4.75921e-06
4.76455e-06
4.59259e-06
4.26427e-06
3.6909e-06
2.67426e-06
4.42272e-06
8.10713e-06
9.68058e-06
1.02659e-05
1.04727e-05
1.03983e-05
9.79077e-06
9.27566e-06
9.22539e-06
9.44719e-06
9.45636e-06
9.35601e-06
9.59773e-06
1.01336e-05
1.03512e-05
1.03325e-05
1.01448e-05
9.31129e-06
7.61008e-06
4.28876e-06
5.87995e-06
1.17023e-05
1.35206e-05
1.31539e-05
1.26586e-05
1.25279e-05
1.13304e-05
1.07067e-05
1.08217e-05
1.12216e-05
1.15099e-05
1.17063e-05
1.22847e-05
1.34151e-05
1.36521e-05
1.3773e-05
1.43896e-05
1.35126e-05
1.07462e-05
5.76894e-06
1.64208e-05
1.87469e-05
1.83119e-05
1.81871e-05
1.78447e-05
1.75302e-05
1.484e-05
1.2788e-05
1.21899e-05
1.23269e-05
1.28745e-05
1.35911e-05
1.49564e-05
1.70011e-05
1.79621e-05
1.85746e-05
1.90942e-05
2.03152e-05
2.1832e-05
1.90169e-05
2.39427e-05
2.77128e-05
2.64299e-05
2.33396e-05
2.07664e-05
1.95945e-05
1.85413e-05
1.68135e-05
1.5214e-05
1.39673e-05
1.47713e-05
1.60351e-05
1.70642e-05
1.82611e-05
1.98323e-05
2.23223e-05
2.56842e-05
2.88693e-05
3.01068e-05
2.64545e-05
2.96074e-05
3.17598e-05
3.0715e-05
2.82824e-05
2.51223e-05
2.21229e-05
1.94733e-05
1.74824e-05
1.65861e-05
1.58692e-05
1.60417e-05
1.71494e-05
1.91002e-05
2.1694e-05
2.45394e-05
2.75471e-05
3.05529e-05
3.29592e-05
3.41589e-05
3.23247e-05
3.59397e-05
3.74595e-05
3.70689e-05
3.58837e-05
3.3396e-05
3.08384e-05
2.76545e-05
2.45772e-05
2.2194e-05
2.12284e-05
2.14532e-05
2.36591e-05
2.71552e-05
3.08308e-05
3.4053e-05
3.70018e-05
3.89618e-05
4.00776e-05
4.03348e-05
3.87594e-05
4.27218e-05
4.54941e-05
4.80362e-05
4.99727e-05
5.07971e-05
4.86877e-05
4.68122e-05
4.47697e-05
4.17253e-05
3.77907e-05
3.74591e-05
4.22625e-05
4.68582e-05
5.01651e-05
5.3768e-05
5.5395e-05
5.44978e-05
5.2362e-05
4.92312e-05
4.57031e-05
5.0246e-05
5.92637e-05
7.16121e-05
8.52923e-05
9.88781e-05
0.000111499
0.000117962
0.000118561
0.000110422
9.42433e-05
9.27304e-05
0.000109988
0.000121798
0.00012358
0.000116435
0.000105241
9.1506e-05
7.72634e-05
6.37879e-05
5.34903e-05
5.97682e-05
7.36574e-05
8.69852e-05
9.92031e-05
0.000110542
0.000120854
0.00012959
0.000135831
0.000138154
0.000134605
0.000134813
0.000138969
0.00013794
0.000132864
0.000124914
0.000115028
0.00010374
9.13239e-05
7.76116e-05
6.31958e-05
3.01331e-06
4.29168e-06
4.94e-06
5.29164e-06
5.44065e-06
5.37584e-06
5.26014e-06
5.22025e-06
5.2721e-06
5.35047e-06
5.29667e-06
5.16287e-06
5.12981e-06
5.23966e-06
5.39045e-06
5.37228e-06
5.15515e-06
4.76215e-06
4.05234e-06
2.72858e-06
4.44508e-06
8.9704e-06
1.02659e-05
1.08839e-05
1.12721e-05
1.12276e-05
1.07684e-05
1.05962e-05
1.09412e-05
1.15639e-05
1.15876e-05
1.12354e-05
1.11936e-05
1.15048e-05
1.16706e-05
1.14426e-05
1.10181e-05
1.03068e-05
8.65827e-06
4.26447e-06
6.17878e-06
1.17136e-05
1.31539e-05
1.34769e-05
1.38085e-05
1.3634e-05
1.23802e-05
1.20577e-05
1.24554e-05
1.31276e-05
1.34137e-05
1.34786e-05
1.38425e-05
1.47382e-05
1.52771e-05
1.49893e-05
1.47873e-05
1.44153e-05
1.23762e-05
5.81176e-06
1.22845e-05
1.64029e-05
1.81871e-05
1.91922e-05
1.93378e-05
1.85833e-05
1.57174e-05
1.4107e-05
1.36863e-05
1.41153e-05
1.46696e-05
1.53298e-05
1.65245e-05
1.84235e-05
1.98388e-05
2.0336e-05
1.99566e-05
1.92209e-05
1.81946e-05
1.45421e-05
2.14439e-05
2.3904e-05
2.33396e-05
2.21303e-05
2.12396e-05
2.11031e-05
2.03874e-05
1.87289e-05
1.68304e-05
1.57867e-05
1.63896e-05
1.7868e-05
1.92084e-05
2.01959e-05
2.09935e-05
2.22271e-05
2.39992e-05
2.59931e-05
2.69202e-05
2.39916e-05
2.88463e-05
3.04015e-05
2.82824e-05
2.55421e-05
2.30984e-05
2.10549e-05
1.93041e-05
1.80631e-05
1.77763e-05
1.79242e-05
1.7605e-05
1.79161e-05
1.91156e-05
2.08593e-05
2.28704e-05
2.52507e-05
2.81185e-05
3.09505e-05
3.30317e-05
3.15041e-05
3.76628e-05
3.8851e-05
3.58837e-05
3.22824e-05
2.95537e-05
2.71945e-05
2.48739e-05
2.2865e-05
2.16551e-05
2.19117e-05
2.25958e-05
2.40657e-05
2.62827e-05
2.85745e-05
3.08362e-05
3.32832e-05
3.62166e-05
3.93861e-05
4.17123e-05
4.04073e-05
4.6691e-05
4.95689e-05
4.99727e-05
4.8525e-05
4.7903e-05
4.76731e-05
4.74434e-05
4.67693e-05
4.44015e-05
4.06437e-05
4.07659e-05
4.73763e-05
5.21969e-05
5.40472e-05
5.46105e-05
5.4392e-05
5.54423e-05
5.51698e-05
5.31718e-05
4.96434e-05
5.62862e-05
6.66059e-05
8.52923e-05
0.000109761
0.000127962
0.000141827
0.00015236
0.000156184
0.000147411
0.000127872
0.000125861
0.000148397
0.000163383
0.000163841
0.00015579
0.000142722
0.000119462
9.27304e-05
7.14435e-05
5.9574e-05
6.78677e-05
8.40056e-05
9.92031e-05
0.000113332
0.000126736
0.000139399
0.000150609
0.000159062
0.000162872
0.000160391
0.000160581
0.00016385
0.000161592
0.000154548
0.000144285
0.000132054
0.00011852
0.000103955
8.81586e-05
7.1367e-05
2.97738e-06
4.35313e-06
5.05848e-06
5.44066e-06
5.6033e-06
5.59652e-06
5.57193e-06
5.62891e-06
5.80182e-06
6.01243e-06
5.99889e-06
5.81414e-06
5.73081e-06
5.75466e-06
5.81419e-06
5.74603e-06
5.47944e-06
5.00888e-06
4.22552e-06
2.72792e-06
4.26235e-06
9.05801e-06
1.04727e-05
1.12721e-05
1.17184e-05
1.16302e-05
1.1439e-05
1.16762e-05
1.25527e-05
1.37833e-05
1.38096e-05
1.29816e-05
1.24655e-05
1.24071e-05
1.24552e-05
1.21628e-05
1.15146e-05
1.06308e-05
8.97861e-06
4.04183e-06
6.05996e-06
1.07311e-05
1.26586e-05
1.38085e-05
1.44472e-05
1.38181e-05
1.30401e-05
1.3204e-05
1.41339e-05
1.53097e-05
1.5503e-05
1.51098e-05
1.495e-05
1.53341e-05
1.58867e-05
1.57186e-05
1.48224e-05
1.36066e-05
1.13471e-05
5.79528e-06
8.49263e-06
1.48005e-05
1.78447e-05
1.93378e-05
1.96458e-05
1.81534e-05
1.58232e-05
1.49263e-05
1.50971e-05
1.61456e-05
1.65497e-05
1.66031e-05
1.72747e-05
1.86936e-05
2.02156e-05
2.08478e-05
2.03036e-05
1.86557e-05
1.58133e-05
1.06421e-05
1.89422e-05
2.00697e-05
2.07664e-05
2.12396e-05
2.17692e-05
2.20295e-05
2.11017e-05
1.94003e-05
1.7953e-05
1.81458e-05
1.84213e-05
1.89297e-05
2.02508e-05
2.14317e-05
2.19074e-05
2.20937e-05
2.23207e-05
2.25789e-05
2.25485e-05
2.10098e-05
2.80425e-05
2.80731e-05
2.51223e-05
2.30984e-05
2.1631e-05
2.04972e-05
1.95079e-05
1.90345e-05
1.95722e-05
2.11881e-05
2.05805e-05
1.9383e-05
1.96044e-05
2.0512e-05
2.17513e-05
2.33342e-05
2.53745e-05
2.79722e-05
3.09613e-05
3.05e-05
3.91617e-05
3.96772e-05
3.33959e-05
2.95537e-05
2.71974e-05
2.5505e-05
2.41404e-05
2.32837e-05
2.36191e-05
2.62351e-05
2.75075e-05
2.68733e-05
2.71617e-05
2.79451e-05
2.91491e-05
3.08426e-05
3.34095e-05
3.75911e-05
4.25183e-05
4.17014e-05
5.01113e-05
5.37029e-05
5.07971e-05
4.7903e-05
4.91217e-05
5.11909e-05
5.32453e-05
5.43974e-05
5.30043e-05
4.96644e-05
5.07308e-05
5.79391e-05
6.20722e-05
6.1848e-05
5.95784e-05
5.66988e-05
5.48321e-05
5.65506e-05
5.69797e-05
5.29151e-05
6.15591e-05
7.39134e-05
9.88781e-05
0.000127962
0.000154377
0.000178505
0.00019661
0.000204943
0.000195142
0.000168589
0.000166218
0.000196034
0.000213936
0.000210332
0.000193537
0.000170288
0.000144741
0.000107682
7.88286e-05
6.47715e-05
7.48957e-05
9.33598e-05
0.000110542
0.000126736
0.000143002
0.000158914
0.00017332
0.000184749
0.000191138
0.000190847
0.000191161
0.000192052
0.000187233
0.000177344
0.00016398
0.000148579
0.000132334
0.000115501
9.75601e-05
7.83502e-05
2.88993e-06
4.24532e-06
4.9669e-06
5.37585e-06
5.59652e-06
5.70967e-06
5.81457e-06
5.98448e-06
6.30234e-06
6.69993e-06
6.74883e-06
6.45997e-06
6.26867e-06
6.14789e-06
6.04023e-06
5.85263e-06
5.51568e-06
4.98678e-06
4.1477e-06
2.64196e-06
4.06404e-06
8.79383e-06
1.03983e-05
1.12276e-05
1.16302e-05
1.17464e-05
1.19708e-05
1.26992e-05
1.42019e-05
1.62041e-05
1.6192e-05
1.46533e-05
1.35082e-05
1.29256e-05
1.26444e-05
1.22783e-05
1.16002e-05
1.05506e-05
8.7568e-06
3.84998e-06
5.79186e-06
1.03951e-05
1.25279e-05
1.3634e-05
1.38182e-05
1.34995e-05
1.35202e-05
1.41105e-05
1.54985e-05
1.71534e-05
1.72541e-05
1.64157e-05
1.56722e-05
1.54088e-05
1.55015e-05
1.54536e-05
1.47394e-05
1.31701e-05
1.05562e-05
5.64149e-06
7.14792e-06
1.43604e-05
1.75302e-05
1.85833e-05
1.81534e-05
1.66815e-05
1.56554e-05
1.54823e-05
1.64272e-05
1.81813e-05
1.83152e-05
1.75505e-05
1.74669e-05
1.81664e-05
1.9292e-05
2.01408e-05
2.00323e-05
1.85288e-05
1.48731e-05
7.24976e-06
1.62453e-05
1.77602e-05
1.95945e-05
2.11031e-05
2.20295e-05
2.19181e-05
2.0737e-05
1.92277e-05
1.86621e-05
2.04352e-05
2.02503e-05
1.95217e-05
2.03674e-05
2.16376e-05
2.22972e-05
2.2135e-05
2.14026e-05
2.03825e-05
1.91972e-05
1.83767e-05
2.6923e-05
2.44537e-05
2.21229e-05
2.10549e-05
2.04972e-05
2.00667e-05
1.97294e-05
1.9887e-05
2.11367e-05
2.43805e-05
2.37245e-05
2.08781e-05
2.01444e-05
2.0375e-05
2.0928e-05
2.17309e-05
2.28586e-05
2.4605e-05
2.76189e-05
2.91989e-05
4.02256e-05
3.89537e-05
3.08384e-05
2.71944e-05
2.5505e-05
2.46243e-05
2.42166e-05
2.4557e-05
2.67221e-05
3.26086e-05
3.42514e-05
3.02438e-05
2.84387e-05
2.78366e-05
2.80354e-05
2.88807e-05
3.06757e-05
3.43751e-05
4.18425e-05
4.24903e-05
5.28028e-05
5.70285e-05
4.86877e-05
4.76731e-05
5.11909e-05
5.58026e-05
6.03172e-05
6.30059e-05
6.15119e-05
5.79346e-05
5.97662e-05
6.68523e-05
7.1175e-05
6.96115e-05
6.48103e-05
5.92831e-05
5.4894e-05
5.52427e-05
5.98794e-05
5.53696e-05
6.5894e-05
8.04667e-05
0.000111499
0.000141827
0.000178505
0.000211999
0.000238279
0.000249037
0.00022994
0.000187432
0.000184685
0.000226189
0.00025497
0.000252102
0.000228059
0.000194145
0.000158498
0.000119637
8.50877e-05
6.89182e-05
8.07978e-05
0.000101581
0.000120854
0.000139399
0.000158914
0.000178257
0.000196217
0.000211117
0.000220802
0.000223934
0.000224556
0.00022146
0.000213081
0.000199799
0.000183013
0.000164263
0.000144857
0.000125689
0.000105633
8.40945e-05
2.79025e-06
4.05406e-06
4.79483e-06
5.26016e-06
5.57194e-06
5.81457e-06
6.06664e-06
6.37679e-06
6.89622e-06
7.66492e-06
7.78909e-06
7.19235e-06
6.7869e-06
6.45914e-06
6.15121e-06
5.80236e-06
5.36339e-06
4.78048e-06
3.93323e-06
2.55268e-06
3.98608e-06
8.13002e-06
9.7908e-06
1.07684e-05
1.1439e-05
1.19708e-05
1.266e-05
1.40294e-05
1.64771e-05
2.0364e-05
2.01994e-05
1.67747e-05
1.4666e-05
1.33854e-05
1.2591e-05
1.18878e-05
1.1074e-05
9.98703e-06
8.24582e-06
3.78536e-06
5.642e-06
9.54569e-06
1.13304e-05
1.23802e-05
1.30401e-05
1.35202e-05
1.41191e-05
1.5202e-05
1.72302e-05
2.04018e-05
2.02894e-05
1.80446e-05
1.64865e-05
1.55018e-05
1.48768e-05
1.42799e-05
1.34566e-05
1.20669e-05
9.86744e-06
5.55722e-06
7.1645e-06
1.24529e-05
1.484e-05
1.57175e-05
1.58232e-05
1.56554e-05
1.56803e-05
1.62461e-05
1.82759e-05
2.28563e-05
2.22917e-05
1.89883e-05
1.76931e-05
1.74802e-05
1.76892e-05
1.78765e-05
1.76647e-05
1.65453e-05
1.35154e-05
6.91022e-06
1.28281e-05
1.57599e-05
1.85413e-05
2.03873e-05
2.11017e-05
2.0737e-05
1.97463e-05
1.89484e-05
2.01624e-05
2.66973e-05
2.54054e-05
2.06018e-05
2.00302e-05
2.08906e-05
2.16861e-05
2.17191e-05
2.0815e-05
1.91089e-05
1.68633e-05
1.4827e-05
2.55828e-05
2.11458e-05
1.94733e-05
1.9304e-05
1.95078e-05
1.97294e-05
1.99917e-05
2.05788e-05
2.30799e-05
3.18074e-05
3.02962e-05
2.26995e-05
2.06602e-05
2.03681e-05
2.03528e-05
2.04276e-05
2.06718e-05
2.13912e-05
2.3469e-05
2.74267e-05
4.06803e-05
3.56294e-05
2.76545e-05
2.48739e-05
2.41404e-05
2.42166e-05
2.48221e-05
2.6438e-05
3.10189e-05
4.35126e-05
4.51794e-05
3.42886e-05
2.99378e-05
2.80374e-05
2.72372e-05
2.71166e-05
2.79271e-05
3.08377e-05
3.89168e-05
4.26113e-05
5.45529e-05
5.83361e-05
4.68122e-05
4.74433e-05
5.32453e-05
6.03172e-05
6.66667e-05
6.94108e-05
6.62355e-05
6.56331e-05
6.82057e-05
7.06858e-05
7.60945e-05
7.50156e-05
6.87749e-05
6.08575e-05
5.38195e-05
5.15325e-05
6.11384e-05
5.68474e-05
6.89973e-05
8.46727e-05
0.000117962
0.000152359
0.00019661
0.000238279
0.000269795
0.000275752
0.000234812
0.000190603
0.000189986
0.00022743
0.000273204
0.000278695
0.000252083
0.000211246
0.000166446
0.000127904
8.93293e-05
7.17997e-05
8.54073e-05
0.000108311
0.00012959
0.000150609
0.00017332
0.000196217
0.000218051
0.000237226
0.00025232
0.000263748
0.000265074
0.00025315
0.000238608
0.000220819
0.000200214
0.000178054
0.000155544
0.000134073
0.000112061
8.84545e-05
2.69902e-06
3.89498e-06
4.67883e-06
5.22027e-06
5.62893e-06
5.98449e-06
6.37679e-06
6.9102e-06
7.77948e-06
9.07372e-06
9.26476e-06
8.13002e-06
7.3552e-06
6.74414e-06
6.23228e-06
5.73543e-06
5.19797e-06
4.55852e-06
3.71569e-06
2.47066e-06
3.90762e-06
7.44479e-06
9.27569e-06
1.05962e-05
1.16763e-05
1.26992e-05
1.40294e-05
1.65071e-05
2.01139e-05
2.31273e-05
2.25779e-05
1.97552e-05
1.65199e-05
1.42373e-05
1.28497e-05
1.17401e-05
1.0625e-05
9.31348e-06
7.51517e-06
3.71234e-06
5.52865e-06
8.95631e-06
1.07067e-05
1.20577e-05
1.3204e-05
1.41105e-05
1.5202e-05
1.72456e-05
2.02977e-05
2.75631e-05
2.71784e-05
2.09049e-05
1.80552e-05
1.60958e-05
1.48767e-05
1.38278e-05
1.25788e-05
1.10437e-05
9.12269e-06
5.48264e-06
7.02438e-06
1.06959e-05
1.2788e-05
1.4107e-05
1.49263e-05
1.54823e-05
1.6246e-05
1.83296e-05
2.35113e-05
4.45644e-05
4.28198e-05
2.39485e-05
1.90959e-05
1.73468e-05
1.67142e-05
1.6204e-05
1.5259e-05
1.36599e-05
1.119e-05
7.08251e-06
9.63902e-06
1.34566e-05
1.68135e-05
1.87289e-05
1.94003e-05
1.92277e-05
1.89483e-05
2.0225e-05
2.88495e-05
7.14291e-05
6.66679e-05
2.815e-05
2.07196e-05
1.98454e-05
2.01569e-05
2.02286e-05
1.94702e-05
1.7471e-05
1.43858e-05
1.11303e-05
2.42128e-05
1.872e-05
1.74824e-05
1.80631e-05
1.90345e-05
1.9887e-05
2.05788e-05
2.22595e-05
3.34707e-05
9.33545e-05
8.71367e-05
3.18626e-05
2.21129e-05
2.06827e-05
2.01687e-05
1.95777e-05
1.90054e-05
1.88879e-05
2.04682e-05
2.57478e-05
4.04334e-05
3.16235e-05
2.45771e-05
2.2865e-05
2.32837e-05
2.4557e-05
2.6438e-05
3.02139e-05
4.43765e-05
0.000108017
0.000108192
4.67628e-05
3.31067e-05
2.90909e-05
2.70652e-05
2.57355e-05
2.53321e-05
2.71247e-05
3.42687e-05
4.20395e-05
5.51465e-05
5.73331e-05
4.47697e-05
4.67693e-05
5.43974e-05
6.30059e-05
6.94107e-05
7.02068e-05
7.18928e-05
0.000117068
0.000120716
7.56711e-05
7.48738e-05
7.54875e-05
6.98274e-05
6.07776e-05
5.20254e-05
4.86498e-05
5.99375e-05
5.71377e-05
7.05111e-05
8.56135e-05
0.000118561
0.000156184
0.000204943
0.000249037
0.000275752
0.000258237
0.000218296
0.000250166
0.000252278
0.000217972
0.000252855
0.000276913
0.000258222
0.000216978
0.000167782
0.000127633
8.97656e-05
7.30097e-05
8.83453e-05
0.000112886
0.000135831
0.000159062
0.000184749
0.000211117
0.000237226
0.000262553
0.000289359
0.000320571
0.000322698
0.000291387
0.000264218
0.000239402
0.000214282
0.000188688
0.000163311
0.000139795
0.000116247
9.11052e-05
2.63035e-06
3.78617e-06
4.63212e-06
5.27212e-06
5.80183e-06
6.30235e-06
6.89623e-06
7.77948e-06
8.77585e-06
1.01639e-05
1.05387e-05
9.05374e-06
8.03771e-06
7.06522e-06
6.34329e-06
5.72397e-06
5.11e-06
4.42846e-06
3.5863e-06
2.42575e-06
3.89481e-06
7.17138e-06
9.22543e-06
1.09412e-05
1.25528e-05
1.42019e-05
1.64771e-05
2.01139e-05
2.17732e-05
4.98983e-05
4.92959e-05
2.13683e-05
1.91677e-05
1.58519e-05
1.37168e-05
1.21487e-05
1.06708e-05
9.11002e-06
7.21193e-06
3.72126e-06
5.58546e-06
8.94659e-06
1.08217e-05
1.24554e-05
1.4134e-05
1.54985e-05
1.72301e-05
2.02977e-05
2.95548e-05
0.000124982
0.000126165
3.10997e-05
2.06473e-05
1.75444e-05
1.57053e-05
1.42976e-05
1.26359e-05
1.10021e-05
9.13499e-06
5.6033e-06
7.08099e-06
1.03442e-05
1.21899e-05
1.36864e-05
1.50971e-05
1.64272e-05
1.82759e-05
2.35113e-05
5.16658e-05
0.000229733
0.000232913
5.45299e-05
2.41657e-05
1.87797e-05
1.70339e-05
1.58707e-05
1.44083e-05
1.27715e-05
1.05638e-05
7.27068e-06
8.66781e-06
1.24363e-05
1.5214e-05
1.68304e-05
1.7953e-05
1.8662e-05
2.01623e-05
2.88495e-05
8.92303e-05
0.000356465
0.000362004
9.13982e-05
2.88169e-05
2.04917e-05
1.91405e-05
1.85256e-05
1.7656e-05
1.60376e-05
1.27124e-05
9.61449e-06
2.28551e-05
1.76043e-05
1.65861e-05
1.77763e-05
1.95722e-05
2.11367e-05
2.30798e-05
3.34706e-05
0.000121713
0.000465425
0.000471001
0.00012117
3.27275e-05
2.28659e-05
2.09799e-05
1.95624e-05
1.81704e-05
1.74711e-05
1.89096e-05
2.43263e-05
3.93399e-05
2.80266e-05
2.2194e-05
2.16551e-05
2.3619e-05
2.67221e-05
3.10188e-05
4.43764e-05
0.000143146
0.000518667
0.000526036
0.00014389
4.61738e-05
3.28643e-05
2.85166e-05
2.53474e-05
2.34048e-05
2.41034e-05
3.0183e-05
4.07691e-05
5.43142e-05
5.38566e-05
4.17253e-05
4.44015e-05
5.30042e-05
6.15118e-05
6.62355e-05
7.18928e-05
0.000150203
0.000494029
0.000502159
0.000152381
7.51341e-05
6.99541e-05
6.59855e-05
5.75621e-05
4.83437e-05
4.48544e-05
5.6359e-05
5.60217e-05
6.9902e-05
8.20672e-05
0.000110421
0.000147411
0.000195142
0.00022994
0.000234812
0.000218296
0.000268103
0.000440249
0.000446271
0.000271845
0.000218325
0.0002335
0.000233694
0.000203044
0.000156137
0.000118456
8.54433e-05
7.20747e-05
8.88987e-05
0.000114243
0.000138154
0.000162872
0.000191138
0.000220802
0.00025232
0.000289359
0.000338423
0.000396286
0.00039888
0.00034178
0.000292172
0.000254679
0.000223448
0.000194349
0.00016646
0.00014161
0.000117227
9.13865e-05
2.59031e-06
3.72755e-06
4.61925e-06
5.35049e-06
6.01245e-06
6.69994e-06
7.66493e-06
9.07373e-06
1.01639e-05
1.06472e-05
1.09928e-05
1.03868e-05
8.97112e-06
7.50571e-06
6.50375e-06
5.77358e-06
5.09979e-06
4.39237e-06
3.55194e-06
2.42041e-06
3.93785e-06
7.18573e-06
9.44723e-06
1.15639e-05
1.37834e-05
1.62041e-05
2.0364e-05
2.31274e-05
4.98984e-05
4.86279e-05
4.79439e-05
5.102e-05
2.1372e-05
1.8577e-05
1.50037e-05
1.29166e-05
1.10254e-05
9.22025e-06
7.21864e-06
3.78683e-06
5.71867e-06
9.20496e-06
1.12216e-05
1.31277e-05
1.53098e-05
1.71534e-05
2.04018e-05
2.75631e-05
0.000124982
9.41786e-05
9.25261e-05
0.00013743
2.87663e-05
1.99794e-05
1.69497e-05
1.52019e-05
1.31e-05
1.13246e-05
9.46257e-06
5.81253e-06
7.30118e-06
1.05914e-05
1.2327e-05
1.41153e-05
1.61456e-05
1.81813e-05
2.28563e-05
4.45643e-05
0.000229732
0.000153989
0.000151297
0.000254218
4.89533e-05
2.30643e-05
1.85498e-05
1.65427e-05
1.44374e-05
1.26588e-05
1.09134e-05
7.58368e-06
8.8755e-06
1.23217e-05
1.39673e-05
1.57867e-05
1.81458e-05
2.04352e-05
2.66973e-05
7.14289e-05
0.000356464
0.000228291
0.000224523
0.00038948
7.57526e-05
2.67435e-05
2.05695e-05
1.84241e-05
1.60675e-05
1.44749e-05
1.28079e-05
9.67024e-06
2.17979e-05
1.69314e-05
1.58692e-05
1.79242e-05
2.11881e-05
2.43805e-05
3.18073e-05
9.33541e-05
0.000465424
0.000311537
0.000306833
0.000499111
9.69821e-05
3.18649e-05
2.43711e-05
2.09928e-05
1.78637e-05
1.64046e-05
1.81205e-05
2.30781e-05
3.74513e-05
2.64185e-05
2.12284e-05
2.19117e-05
2.6235e-05
3.26085e-05
4.35125e-05
0.000108016
0.000518666
0.000390297
0.00038476
0.000548091
0.000111921
4.45743e-05
3.35306e-05
2.70963e-05
2.29631e-05
2.24706e-05
2.78096e-05
3.87605e-05
5.16732e-05
4.84736e-05
3.77907e-05
4.06436e-05
4.96644e-05
5.79346e-05
6.5633e-05
0.000117068
0.000494028
0.000440078
0.000433706
0.000516181
0.000121436
6.83905e-05
6.05647e-05
5.24102e-05
4.31865e-05
4.00706e-05
5.04581e-05
5.33594e-05
6.64424e-05
7.27207e-05
9.42433e-05
0.000127872
0.000168589
0.000187432
0.000190603
0.000250166
0.000440248
0.000461003
0.000455977
0.000454563
0.000255368
0.000191885
0.000188369
0.000172866
0.000133394
0.000100444
7.56339e-05
6.86119e-05
8.56703e-05
0.000110884
0.000134605
0.000160391
0.000190847
0.000223934
0.000263748
0.00032057
0.000396286
0.000426971
0.000425443
0.000401747
0.000324991
0.000266918
0.000226518
0.000193625
0.000163511
0.000137959
0.00011384
8.82187e-05
2.55464e-06
3.66217e-06
4.54884e-06
5.29668e-06
5.9989e-06
6.74885e-06
7.78911e-06
9.26477e-06
1.05387e-05
1.09928e-05
1.09333e-05
1.0415e-05
9.03523e-06
7.52836e-06
6.48451e-06
5.73611e-06
5.05022e-06
4.34286e-06
3.51489e-06
2.40974e-06
3.95394e-06
7.18447e-06
9.45641e-06
1.15877e-05
1.38097e-05
1.61921e-05
2.01995e-05
2.2578e-05
4.9296e-05
4.79439e-05
4.73682e-05
5.13988e-05
2.12466e-05
1.87331e-05
1.50719e-05
1.29341e-05
1.10008e-05
9.18e-06
7.1746e-06
3.80049e-06
5.78924e-06
9.42844e-06
1.151e-05
1.34138e-05
1.5503e-05
1.72542e-05
2.02895e-05
2.71785e-05
0.000126166
9.25261e-05
9.21735e-05
0.000141867
2.90058e-05
2.00891e-05
1.71509e-05
1.54142e-05
1.33587e-05
1.15504e-05
9.60232e-06
5.88868e-06
7.39478e-06
1.08833e-05
1.28746e-05
1.46697e-05
1.65498e-05
1.83153e-05
2.22918e-05
4.28199e-05
0.000232913
0.000151297
0.000150984
0.000261162
4.77723e-05
2.27331e-05
1.87475e-05
1.69478e-05
1.49526e-05
1.30846e-05
1.10655e-05
7.63969e-06
8.79265e-06
1.25769e-05
1.47713e-05
1.63896e-05
1.84214e-05
2.02504e-05
2.54056e-05
6.66682e-05
0.000362004
0.000224523
0.000223918
0.000397307
7.11009e-05
2.58059e-05
2.05884e-05
1.87331e-05
1.67321e-05
1.50739e-05
1.28347e-05
9.39438e-06
2.18656e-05
1.7172e-05
1.60417e-05
1.7605e-05
2.05806e-05
2.37247e-05
3.02965e-05
8.71373e-05
0.000471002
0.000306833
0.000305651
0.000504132
9.01647e-05
3.06556e-05
2.40299e-05
2.07766e-05
1.78658e-05
1.66588e-05
1.82249e-05
2.2747e-05
3.71895e-05
2.63996e-05
2.14532e-05
2.25958e-05
2.75076e-05
3.42515e-05
4.51796e-05
0.000108193
0.000526037
0.00038476
0.00038298
0.000553155
0.000110193
4.53108e-05
3.45554e-05
2.80783e-05
2.36622e-05
2.27251e-05
2.75411e-05
3.80247e-05
5.13459e-05
4.76808e-05
3.74591e-05
4.07659e-05
5.07308e-05
5.97662e-05
6.82058e-05
0.000120717
0.000502161
0.000433706
0.000431673
0.000520231
0.000122633
7.02648e-05
6.20629e-05
5.33595e-05
4.33893e-05
3.9671e-05
4.93664e-05
5.25194e-05
6.61779e-05
7.15952e-05
9.27304e-05
0.000125861
0.000166218
0.000184685
0.000189986
0.000252279
0.000446272
0.000455977
0.000454879
0.000457987
0.00025687
0.000192952
0.000187916
0.000171825
0.000131884
9.89673e-05
7.41903e-05
6.7773e-05
8.56978e-05
0.000111048
0.000134813
0.000160581
0.000191161
0.000224556
0.000265074
0.000322699
0.000398881
0.000425443
0.000426353
0.000404122
0.000326913
0.000268437
0.000227474
0.000194109
0.000163605
0.000137768
0.000113384
8.75575e-05
2.51096e-06
3.58241e-06
4.4438e-06
5.16288e-06
5.81415e-06
6.45999e-06
7.19237e-06
8.13003e-06
9.05374e-06
1.03868e-05
1.0415e-05
8.95134e-06
7.92741e-06
6.89169e-06
6.13455e-06
5.50515e-06
4.88975e-06
4.22111e-06
3.41289e-06
2.3613e-06
3.90546e-06
7.17859e-06
9.35606e-06
1.12355e-05
1.29816e-05
1.46534e-05
1.67747e-05
1.97552e-05
2.13683e-05
5.10199e-05
5.13989e-05
2.10885e-05
1.90158e-05
1.58143e-05
1.36627e-05
1.20371e-05
1.0481e-05
8.87638e-06
6.97862e-06
3.71118e-06
5.68978e-06
9.54029e-06
1.17064e-05
1.34786e-05
1.51099e-05
1.64158e-05
1.80447e-05
2.0905e-05
3.10998e-05
0.00013743
0.000141867
3.32355e-05
2.12615e-05
1.80719e-05
1.63289e-05
1.49465e-05
1.32781e-05
1.15561e-05
9.49342e-06
5.72051e-06
7.32624e-06
1.10667e-05
1.35912e-05
1.53299e-05
1.66031e-05
1.75506e-05
1.89884e-05
2.39487e-05
5.453e-05
0.000254218
0.000261162
5.83712e-05
2.46723e-05
1.94084e-05
1.79566e-05
1.70167e-05
1.56203e-05
1.37509e-05
1.11435e-05
7.41705e-06
9.67442e-06
1.27082e-05
1.60352e-05
1.78681e-05
1.89297e-05
1.95217e-05
2.06019e-05
2.81501e-05
9.13985e-05
0.00038948
0.000397307
9.44311e-05
2.84125e-05
2.09775e-05
1.99375e-05
1.93199e-05
1.82266e-05
1.62874e-05
1.31899e-05
1.02369e-05
2.33357e-05
1.83186e-05
1.71494e-05
1.79161e-05
1.9383e-05
2.08782e-05
2.26996e-05
3.18628e-05
0.00012117
0.000499112
0.000504133
0.00012042
3.1518e-05
2.28002e-05
2.10328e-05
1.96578e-05
1.8479e-05
1.80506e-05
1.94091e-05
2.40488e-05
3.89688e-05
2.88001e-05
2.36591e-05
2.40657e-05
2.68733e-05
3.02439e-05
3.42887e-05
4.6763e-05
0.000143891
0.000548092
0.000553155
0.000143166
4.6884e-05
3.45671e-05
3.06628e-05
2.76381e-05
2.52908e-05
2.51707e-05
2.99475e-05
3.98134e-05
5.37263e-05
5.20209e-05
4.22625e-05
4.73764e-05
5.79392e-05
6.68524e-05
7.06858e-05
7.56712e-05
0.000152381
0.000516181
0.000520231
0.000152439
7.7337e-05
7.28164e-05
6.92677e-05
6.05759e-05
5.02338e-05
4.51923e-05
5.45312e-05
5.49568e-05
6.94871e-05
8.00926e-05
0.000109988
0.000148398
0.000196035
0.000226189
0.00022743
0.000217972
0.000271845
0.000454563
0.000457987
0.000274655
0.000221511
0.00023402
0.000235666
0.000205776
0.000157094
0.000117587
8.36492e-05
7.1114e-05
8.91655e-05
0.000114782
0.000138969
0.00016385
0.000192053
0.00022146
0.00025315
0.000291388
0.00034178
0.000401747
0.000404122
0.000344928
0.000294563
0.000256383
0.000224792
0.000195373
0.000167036
0.000141691
0.000116906
9.08436e-05
2.50195e-06
3.57766e-06
4.43073e-06
5.12982e-06
5.73082e-06
6.26869e-06
6.78692e-06
7.35522e-06
8.03771e-06
8.97112e-06
9.03525e-06
7.92742e-06
7.07786e-06
6.37071e-06
5.80208e-06
5.27174e-06
4.70765e-06
4.06501e-06
3.28059e-06
2.28611e-06
3.89782e-06
7.51045e-06
9.59777e-06
1.11937e-05
1.24656e-05
1.35083e-05
1.46661e-05
1.652e-05
1.91677e-05
2.1372e-05
2.12466e-05
1.90158e-05
1.60759e-05
1.38602e-05
1.2478e-05
1.1351e-05
1.01806e-05
8.83507e-06
7.04558e-06
3.62888e-06
5.7902e-06
1.01088e-05
1.22848e-05
1.38425e-05
1.49501e-05
1.56722e-05
1.64866e-05
1.80553e-05
2.06473e-05
2.87664e-05
2.90058e-05