/*--------------------------------*- C++ -*----------------------------------*\
| =========                 |                                                 |
| \\      /  F ield         | OpenFOAM: The Open Source CFD Toolbox           |
|  \\    /   O peration     | Version:  1.7.1                                 |
|   \\  /    A nd           | Web:      www.OpenFOAM.com                      |
|    \\/     M anipulation  |                                                 |
\*---------------------------------------------------------------------------*/
FoamFile
{
    version     2.0;
    format      ascii;
    class       surfaceScalarField;
    location    "1600";
    object      phi;
}
// * * * * * * * * * * * * * * * * * * * * * * * * * * * * * * * * * * * * * //

dimensions      [1 0 -1 0 0 0 0];

internalField   nonuniform List<scalar> 
11200
(
0.000520066
-0.00104008
0.00052006
0.000892545
-0.000908014
0.000535586
0.00104485
-0.000662274
0.000510013
0.00107551
-0.000505574
0.000474955
0.000975055
-0.000351551
0.000452026
0.000832176
-0.000301921
0.000444817
0.000662101
-0.000254314
0.000424398
0.000478032
-0.000216751
0.000400824
0.00029856
-0.000210689
0.000390165
0.000121472
-0.000210173
0.000387266
-7.12096e-05
-0.000199263
0.000391948
-0.00030213
-0.000171666
0.000402586
-0.00052978
-0.000182241
0.000409892
-0.000676988
-0.000255751
0.000402972
-0.000739058
-0.000328485
0.000390575
-0.000751362
-0.000373532
0.000385857
-0.000715822
-0.000429912
0.000394401
-0.000588789
-0.000540028
0.000413028
-0.000310531
-0.000696347
0.000418127
-0.000638229
0.000327723
-0.000338641
-0.000362748
-0.000338645
-0.000408305
-0.000812817
-2.5481e-05
-0.000270547
-0.000852451
5.24567e-05
-0.000154944
-0.00065852
3.73729e-05
-0.000140338
-0.000441044
7.4907e-05
-0.000225121
-0.000342435
0.000125312
-0.000278242
-0.000357907
0.000156728
-0.000291694
-0.000377436
0.000174151
-0.000303205
-0.000379593
0.000180429
-0.000306838
-0.000371706
0.000165178
-0.000285848
-0.000367582
0.000147341
-0.000225784
-0.000368962
0.000137243
-0.000154501
-0.000370662
0.00011715
-0.000129017
-0.000379601
9.83803e-05
-6.79923e-05
-0.000476708
8.722e-05
7.37671e-05
-0.000582346
6.708e-05
0.000283242
-0.000724175
8.48179e-05
0.000441772
-0.000781615
8.30935e-05
0.000299985
-0.00049155
-6.29696e-05
-2.51283e-05
-0.000313108
0.000218894
-0.000800435
0.000218889
-0.000564303
-0.000374181
0.00034463
-0.0014317
-2.38626e-05
3.88332e-05
-0.00192867
8.05454e-06
-0.000169577
-0.00186413
-0.000404879
-0.000100689
-0.001473
-0.00065936
-7.41885e-05
-0.00120334
-0.000527764
-9.97902e-05
-0.000983631
-0.000500481
-9.66541e-05
-0.000729277
-0.000513532
-0.000120403
-0.000421889
-0.000520236
-0.000158846
-5.70399e-05
-0.000548506
-0.000183911
0.000321246
-0.000590962
-0.000156271
0.00069736
-0.000610926
-0.000135835
0.00109145
-0.000694923
-7.87506e-05
0.00129581
-0.000617914
-6.31274e-05
0.0011346
-0.000319632
-0.000101477
0.000482972
-8.63152e-05
1.37889e-05
-0.000479222
-0.000172088
0.000352707
-0.000847011
-0.000632374
0.000508728
-0.00145585
0.000583856
0.00160515
-0.00401075
0.00160515
0.00213141
-0.00236324
0.00146281
0.00176867
-0.000873179
0.0012121
0.000748682
5.15101e-05
0.000976568
-0.000400955
2.54571e-05
0.000719316
-0.00112651
-0.000134656
0.000200869
-0.00134436
-0.000187953
-0.000121954
-0.00117316
-0.000399018
-0.000272657
-0.000737748
-0.000484603
-0.000464331
-0.000215131
-0.000438864
-0.000603981
0.000282537
-0.000448141
-0.000598023
0.000561407
-0.000438217
-0.000431604
0.000538602
-0.000368128
-0.000219979
2.14462e-05
-0.000308043
0.000130296
-0.000958647
-0.000183227
0.000545431
-0.00194474
-8.57076e-05
0.000752218
-0.00260752
-0.000421261
0.000997802
-0.00261756
-0.00144962
0.00128762
-0.00178177
-0.00299385
0.0015257
-0.00486566
0.00162804
0.00115511
-0.00632099
0.00115511
0.00191637
-0.00456975
0.00144523
0.00237736
-0.00294122
0.00160704
0.0025725
-0.0017623
0.00161868
0.00229403
-0.00119282
0.00149676
0.00154165
-0.000713701
0.00133145
0.000663025
-0.000378501
0.00106918
-3.30272e-05
-0.000356172
0.000653219
-0.000188751
-0.000370499
4.16302e-05
-5.86844e-05
-0.000322591
-0.000246333
-9.51439e-05
-0.000317045
-9.46286e-05
-0.000506789
-0.000363687
0.000337128
-0.00114551
-0.000476163
0.000746773
-0.00182025
-0.000724191
0.00109092
-0.00230945
-0.00106229
0.00136829
-0.00246849
-0.00146445
0.00153781
-0.00232611
-0.0021638
0.00160017
-0.00190107
-0.00341546
0.00154081
-0.00114604
-0.00512586
0.00137698
-0.00711004
0.00109833
0.000586376
-0.00749376
0.000586374
0.000744052
-0.00586557
0.00113813
0.000715216
-0.00443243
0.00152003
0.00062909
-0.00345242
0.00177623
0.000401456
-0.00286029
0.00189509
0.000252337
-0.00243756
0.00187297
0.000278376
-0.00215313
0.00174859
0.000310715
-0.00192979
0.00154128
0.000323681
-0.00171803
0.00133456
0.000405052
-0.00158905
0.00118508
0.000408802
-0.00156877
0.00124797
0.000412318
-0.00174414
0.00137694
0.000392468
-0.00198846
0.00153214
0.000245109
-0.00227408
0.00169725
-2.8608e-05
-0.00261614
0.00182756
-0.000288183
-0.00305356
0.00184868
-0.000458214
-0.00371598
0.0017222
-0.000583717
-0.00476889
0.00147892
-0.000509676
-0.00631094
0.00111103
-0.00818636
0.000566628
0.000109136
-0.00771205
0.000109131
-0.000258387
-0.00637428
0.000876213
-0.00069014
-0.00528161
0.00128092
-0.000972172
-0.00466139
0.001491
-0.00109948
-0.00431199
0.00157901
-0.00101548
-0.00410733
0.00158577
-0.000747674
-0.00396016
0.00153922
-0.000352883
-0.00380486
0.00148027
7.92135e-05
-0.00360835
0.00145823
0.000406871
-0.00343175
0.00151504
0.000670223
-0.00338146
0.00154934
0.000987143
-0.00356062
0.00149955
0.00129728
-0.00376614
0.00146754
0.00149762
-0.0039563
0.00148188
0.0015189
-0.0041435
0.00150608
0.00134848
-0.00438869
0.00150555
0.000995183
-0.00480028
0.00143759
0.00048148
-0.00550607
0.00125088
2.65004e-05
-0.00672275
0.000866781
-0.00825142
9.15584e-05
-0.00038011
-0.00695184
-0.000380114
-0.00119676
-0.0059939
0.000436257
-0.00185466
-0.00534714
0.000723421
-0.00222279
-0.00507563
0.000782356
-0.00226898
-0.00496598
0.00070018
-0.0020185
-0.00493624
0.000578424
-0.00152733
-0.00491368
0.00046235
-0.000881514
-0.00484278
0.000392106
-0.000212997
-0.00470186
0.000424989
0.000262362
-0.00453252
0.000625416
0.000701961
-0.00448341
0.000662347
0.00130141
-0.00463398
0.000473913
0.00191321
-0.00477554
0.000397607
0.00238518
-0.00486597
0.000437707
0.00261541
-0.00491868
0.000544944
0.00254566
-0.00498553
0.000666582
0.00213921
-0.00514392
0.000750095
0.0014125
-0.00548205
0.000702687
0.000497715
-0.00622947
0.000421502
-0.0073422
-0.000411513
-0.0011007
-0.00475046
-0.0011007
-0.0023336
-0.00422847
-0.000532528
-0.00315411
-0.00403353
-0.000493106
-0.00353206
-0.00409074
-0.000606928
-0.00348716
-0.00421921
-0.000791672
-0.00307011
-0.00436679
-0.000986484
-0.00235302
-0.00449514
-0.00113563
-0.00143199
-0.00456297
-0.00120083
-0.000486037
-0.00453014
-0.00111767
0.000182417
-0.00442074
-0.000780234
0.000826304
-0.00439569
-0.000731601
0.00172695
-0.00449934
-0.00103529
0.00263098
-0.00452738
-0.00115219
0.00334249
-0.004467
-0.00111049
0.00375112
-0.00435417
-0.000973123
0.00378769
-0.00422397
-0.000798129
0.0033908
-0.00411829
-0.000628728
0.0025268
-0.00409544
-0.000522607
0.00121739
-0.0043479
-0.000572153
-0.00497511
-0.00114971
-0.00237523
-0.00237523
-0.00400144
-0.00260226
-0.00486967
-0.0031653
-0.00520426
-0.00375613
-0.00507526
-0.0043482
-0.00453604
-0.00490601
-0.0036252
-0.00540597
-0.00239637
-0.00579179
-0.000988662
-0.00593784
0.000106666
-0.00551607
0.00120537
-0.0054944
0.00260165
-0.00589561
0.00383484
-0.00576057
0.00475184
-0.005384
0.00529504
-0.00489737
0.0054207
-0.00434963
0.00507603
-0.00377361
0.00418646
-0.00320587
0.00250995
-0.00267138
-0.00246516
0.00053559
-0.000908016
0.000892536
0.000944029
-0.000816822
0.000944022
0.00114315
-0.000599393
0.000910329
0.00117378
-0.000423306
0.000867662
0.00107446
-0.000296975
0.000848342
0.000914477
-0.000251286
0.0008561
0.000728724
-0.000248424
0.00085859
0.000538938
-0.000264666
0.000855288
0.000346063
-0.000272858
0.000855912
0.000146144
-0.000271804
0.000859004
-7.89421e-05
-0.000246313
0.000863359
-0.00033511
-0.000199446
0.000858206
-0.000583737
-0.000185389
0.000843914
-0.000743874
-0.000252195
0.000815321
-0.000812352
-0.000321644
0.000780719
-0.000832611
-0.000352521
0.000758658
-0.000787464
-0.000407292
0.000756574
-0.000631017
-0.000513377
0.00076999
-0.000354141
-0.000619094
0.000760382
-0.000695871
0.000669493
-2.548e-05
-0.000812819
-0.000408309
3.90269e-05
-0.000945788
3.90249e-05
0.000153815
-0.000900303
0.000238613
0.000196498
-0.00066535
0.00023676
0.000171475
-0.000480679
0.000283652
8.78464e-05
-0.000385446
0.000343114
5.07902e-06
-0.000389635
0.000380721
-7.91077e-05
-0.000416362
0.000410052
-0.000177697
-0.000408655
0.000414834
-0.000283923
-0.000399025
0.000398642
-0.000368727
-0.000393091
0.00037894
-0.000384735
-0.00040311
0.000356932
-0.000356924
-0.000422227
0.000326192
-0.000346638
-0.000473387
0.000309305
-0.000304612
-0.000571546
0.000295121
-0.000225365
-0.000635449
0.000270787
-9.02943e-05
-0.000733524
0.000276008
7.94266e-05
-0.000829357
0.00022939
0.000118435
-0.000697806
-2.32254e-05
-0.000461906
-0.000428601
0.000344629
-0.000374178
-0.000564313
-2.97817e-05
-0.000196918
-2.97851e-05
-0.00067284
-9.27812e-05
-0.000125602
-0.00111225
-0.000140241
-0.000255249
-0.00114315
-0.000409967
-0.000140492
-0.000856377
-0.000693664
-5.27279e-05
-0.000710389
-0.00053001
-0.000105393
-0.000627332
-0.000472983
-0.00012308
-0.000534584
-0.000465045
-0.000156751
-0.000425103
-0.000463671
-0.000203669
-0.000278126
-0.00049824
-0.000225729
-7.18611e-05
-0.000568469
-0.000197164
0.00017144
-0.00065336
-0.000147989
0.000438836
-0.000765304
-5.42117e-05
0.000577769
-0.000724254
-4.93299e-05
0.000404154
-0.000461629
-0.000101654
-9.79024e-05
-0.000232082
1.4431e-05
-0.000662131
-0.000162814
0.000250426
-0.000780209
-0.000363904
0.000292976
-0.000678562
2.04153e-05
0.00146281
-0.00236323
0.00213141
0.0020093
-0.00128987
0.0020093
0.00176579
-0.000275785
0.00163867
0.00103261
0.000340707
0.00122882
0.000155146
0.000317274
0.000869553
-0.000551299
-4.96171e-05
0.000263274
-0.000847115
-0.000182038
-0.000174104
-0.000815706
-0.00039952
-0.000377525
-0.000553002
-0.000602992
-0.000589087
-0.000321277
-0.000545767
-0.000753609
-9.88045e-05
-0.000606977
-0.000711756
1.77526e-05
-0.000617179
-0.000499443
-0.000119885
-0.000515462
-0.000220227
-0.000582099
-0.000370909
0.00019813
-0.00126718
-0.000108089
0.000614368
-0.00204833
9.19476e-05
0.000979828
-0.00260655
-9.27912e-05
0.00141679
-0.00256069
-0.000819211
0.00189821
-0.00173483
-0.00192871
0.00226469
-0.00316179
0.00237645
0.00144523
-0.00456974
0.00191637
0.00240296
-0.00320533
0.00240296
0.00295585
-0.00179924
0.00257758
0.0031293
-0.00065497
0.0024409
0.00284399
-5.04348e-05
0.00214979
0.00203983
0.000311847
0.00177416
0.00116473
0.00045778
0.00130447
0.000410414
0.000322385
0.000685632
-7.31554e-05
9.8111e-05
-0.000175906
-0.000285765
6.49372e-05
-0.000644433
-0.000613166
3.46403e-05
-0.000408847
-0.00116111
6.49173e-05
0.00020298
-0.00187317
0.000127392
0.000815991
-0.00261731
0.000105001
0.00135917
-0.00313612
-6.05949e-05
0.00183962
-0.00327835
-0.000434163
0.00220617
-0.00306612
-0.00115595
0.00245111
-0.00247637
-0.00237792
0.00250977
-0.00147525
-0.00385559
0.00230274
-0.00533032
0.00179161
0.00113813
-0.00586557
0.000744051
0.00175682
-0.00444275
0.00175682
0.00203811
-0.00294654
0.00238601
0.00208233
-0.0016195
0.00269652
0.00188979
-0.00070357
0.00274075
0.00159861
-8.87631e-05
0.00256476
0.00125989
0.000326834
0.00221825
0.000851176
0.000483762
0.00178861
0.000408593
0.000588039
0.00128721
0.000218349
0.000594673
0.000845582
-1.78389e-05
0.000535561
0.000983229
-0.000392969
0.000409401
0.00140759
-0.00081816
0.00024923
0.0018355
-0.00123282
-1.75641e-05
0.00223448
-0.00160784
-0.000382629
0.00252461
-0.00183516
-0.00101702
0.00265885
-0.00186072
-0.00199832
0.00259013
-0.00166083
-0.00338671
0.0022878
-0.0010919
-0.00498584
0.00167234
-0.00649037
0.000634766
0.000876215
-0.00637428
-0.000258391
0.00111095
-0.00491223
0.00111095
0.00103493
-0.00352558
0.00193598
0.000866322
-0.00234606
0.00238615
0.000664873
-0.00152494
0.00260181
0.000534183
-0.000933319
0.002561
0.000508907
-0.000515664
0.00240699
0.000481928
-0.000230141
0.00222114
0.000438443
4.04614e-05
0.00204928
0.000453022
0.00013284
0.00196228
0.000442596
0.000104798
0.00199052
0.000362296
-8.86733e-05
0.00207792
0.000269128
-0.000384518
0.00219445
8.92555e-05
-0.000715259
0.00235944
-0.000165568
-0.00113841
0.00251668
-0.000455696
-0.0017356
0.00251425
-0.00072519
-0.00259642
0.00230518
-0.000929523
-0.00380818
0.00187668
-0.000795824
-0.00530745
0.00105469
-0.00683422
-0.000360421
0.000436259
-0.0059939
-0.00119676
0.000298519
-0.00463676
0.000298515
-0.000117526
-0.00348579
0.00109967
-0.000398355
-0.00271354
0.00143066
-0.000504246
-0.00220267
0.00148379
-0.000456236
-0.0018553
0.00145239
-0.0002807
-0.00158078
0.00135192
-5.26877e-05
-0.0013307
0.00126465
0.000196418
-0.00108082
0.00129716
0.000413392
-0.000894275
0.00143555
0.000624516
-0.00090002
0.00145604
0.000829478
-0.00111144
0.00129171
0.000985848
-0.00135612
0.00121284
0.00106811
-0.00162229
0.00126247
0.0010404
-0.00191474
0.00134899
0.000844992
-0.00229178
0.00141817
0.000456418
-0.0028367
0.00137894
-8.40052e-05
-0.0036295
0.00106443
-0.000335446
-0.00487404
0.000239534
-0.00628179
-0.00129939
-0.000532526
-0.00422847
-0.0023336
-0.00122768
-0.00324645
-0.00122769
-0.00184281
-0.00263559
-0.000728178
-0.00217826
-0.002354
-0.000631013
-0.00217639
-0.00218587
-0.000810336
-0.0018703
-0.00208499
-0.00106289
-0.00136344
-0.00201427
-0.001209
-0.000743825
-0.00193414
-0.00121701
-0.000147287
-0.0018087
-0.000986324
0.00031234
-0.00158001
-0.000554124
0.000731082
-0.00157248
-0.000477884
0.00128485
-0.00179608
-0.000904411
0.0018801
-0.00191492
-0.00118864
0.00235452
-0.00200281
-0.00120439
0.00259635
-0.00209122
-0.00103847
0.00253965
-0.002205
-0.000828215
0.00214307
-0.00238339
-0.00068545
0.00145063
-0.00268303
-0.000776637
0.000633839
-0.00332926
-0.00130015
-0.00436679
-0.00243086
-0.00260226
-0.00400145
-0.00422547
-0.00422548
-0.0050965
-0.00492985
-0.00544488
-0.00576175
-0.00535016
-0.00662878
-0.00487074
-0.0074704
-0.00403896
-0.00825202
-0.00288874
-0.00887614
-0.00147428
-0.009161
0.000142777
-0.00871313
0.00177043
-0.00869453
0.00318819
-0.00910945
0.0043424
-0.00882969
0.00517022
-0.00821463
0.00563508
-0.00745345
0.0057026
-0.00662214
0.00532003
-0.00577442
0.00440565
-0.00497451
0.00271629
-0.00431127
-0.00411565
0.000510016
-0.000662277
0.00104485
0.000910334
-0.000599395
0.00114314
0.00115661
-0.000492515
0.0011566
0.00122251
-0.000338117
0.0011399
0.00115595
-0.000236276
0.00115119
0.00100579
-0.000192616
0.00119889
0.000825501
-0.000215103
0.001254
0.00062984
-0.000255854
0.00130682
0.000415937
-0.000282732
0.00135256
0.000178058
-0.000286673
0.00138358
-9.67362e-05
-0.000253448
0.00139162
-0.000393437
-0.000197018
0.00135193
-0.000663578
-0.00018021
0.00129427
-0.000828687
-0.000244265
0.00122471
-0.000884875
-0.000317921
0.00115485
-0.000877538
-0.000348564
0.00109991
-0.000791674
-0.000403162
0.0010739
-0.00060482
-0.00047266
0.00105583
-0.000335255
-0.000510169
0.00100102
-0.000564863
0.000899139
5.24556e-05
-0.000852451
-0.000270552
0.000238613
-0.000900302
0.000153811
0.000377054
-0.000769369
0.000377053
0.000427519
-0.000584992
0.000433189
0.000419145
-0.000437582
0.000493345
0.000351962
-0.000348373
0.000566065
0.000251851
-0.000346919
0.000612659
0.000122897
-0.000375935
0.000659102
-5.36099e-05
-0.000376955
0.000685581
-0.000260513
-0.000358438
0.000677326
-0.000442171
-0.000345436
0.000652601
-0.000530675
-0.000367862
0.000616293
-0.00053658
-0.000416933
0.000568835
-0.000520792
-0.000487062
0.000536334
-0.000470968
-0.000583779
0.00051118
-0.000390793
-0.000636987
0.000479061
-0.000265195
-0.000711506
0.00045878
-8.48731e-05
-0.00080189
0.000378326
3.92517e-05
-0.000752545
9.50572e-05
-0.00065739
-0.000296792
3.88301e-05
-2.38611e-05
-0.00143171
-0.000125603
-9.27807e-05
-0.000672845
-0.00045214
-0.00011627
-0.000452141
-0.000715653
-0.000206315
-0.000370394
-0.000685
-0.000436154
-0.000172561
-0.000435504
-0.000634089
-1.65003e-05
-0.000352033
-0.000481735
-5.40413e-05
-0.000355558
-0.000419442
-7.60405e-05
-0.000387717
-0.000397437
-0.000104103
-0.000434842
-0.000365819
-0.000149158
-0.000421841
-0.000423697
-0.000160462
-0.000322236
-0.000537632
-0.000126988
-0.000152159
-0.000654946
-8.00385e-05
7.63109e-05
-0.000757549
-1.21802e-05
0.00023742
-0.000763808
-3.03923e-05
0.00017361
-0.000550647
-0.000124159
-7.89109e-05
-0.000323249
-0.000121279
-0.00035456
-0.000174966
-0.000100823
-0.000403956
-0.000111112
-0.000299035
-9.35693e-05
-0.000947337
0.0012121
-0.000873172
0.00176866
0.00163867
-0.000275783
0.00176578
0.00145325
0.000254595
0.00145325
0.000903051
0.000518463
0.00105427
0.000277228
0.000354041
0.000705188
-0.000274203
-2.09205e-05
0.00020154
-0.000546594
-0.000195063
-0.000188384
-0.000554142
-0.000428398
-0.000361022
-0.000446681
-0.000532027
-0.000561961
-0.000384906
-0.000460498
-0.000720708
-0.000316021
-0.000553463
-0.000650875
-0.000273124
-0.000664226
-0.000415745
-0.000371858
-0.000622462
-0.000153969
-0.000671841
-0.000428369
0.000168945
-0.00119722
-0.000144535
0.000520494
-0.00179839
0.00013806
0.000892312
-0.00223958
0.000159441
0.00137534
-0.00220594
-0.000204861
0.00189453
-0.00150913
-0.000816785
0.0022736
-0.00153335
0.00230715
0.00160703
-0.00294121
0.00237736
0.00257758
-0.00179924
0.00295586
0.00308712
-0.000764482
0.00308712
0.00317014
3.45014e-05
0.00284184
0.00282251
0.000429822
0.00242164
0.00206593
0.00061486
0.00189497
0.00125764
0.00059616
0.00132154
0.000545659
0.000312965
0.000656251
-1.86132e-05
1.534e-05
-0.000159008
-0.000364373
-0.000111842
-0.000647338
-0.000756194
-0.000165906
-0.000404589
-0.00132242
-0.000105574
0.000210559
-0.0020365
7.33064e-05
0.000834307
-0.00276611
0.000220586
0.00143984
-0.00332905
0.00023618
0.00202187
-0.00355053
2.99688e-05
0.00253576
-0.00335331
-0.000500269
0.00291362
-0.0027264
-0.00140202
0.00308003
-0.00165107
-0.00245689
0.00286752
-0.00359457
0.00220176
0.00152003
-0.00443242
0.000715216
0.00238601
-0.00294653
0.00203811
0.00285027
-0.001693
0.00285027
0.00296732
-0.000556427
0.00317038
0.00276261
0.000255314
0.00311996
0.00233821
0.000782127
0.00282189
0.0018105
0.000949577
0.00239253
0.00116223
0.000871708
0.00187814
0.000477589
0.000790578
0.00119661
8.32933e-06
0.000675336
0.000527655
-0.000470859
0.000590548
0.000705958
-0.00106322
0.000545899
0.00134847
-0.00168749
0.000576912
0.00195617
-0.00225757
0.000568836
0.00245631
-0.00267224
0.000335196
0.00284027
-0.00284788
-0.000202915
0.00306738
-0.00274359
-0.00106715
0.00305272
-0.00230912
-0.00225241
0.00270371
-0.00146428
-0.00350836
0.00187896
-0.00492831
0.000504225
0.00128093
-0.00528161
-0.000690143
0.00193598
-0.00352558
0.00103492
0.00218281
-0.00218668
0.00218281
0.00218275
-0.00101155
0.00284131
0.00196383
8.2301e-06
0.0030678
0.00169606
0.000617017
0.00299386
0.00139611
0.000889562
0.00276694
0.00105632
0.000944444
0.00248819
0.000729066
0.000961091
0.00220601
0.000418392
0.000952633
0.00199565
9.15355e-05
0.000884101
0.00202381
-0.000301468
0.000769465
0.00224735
-0.000722234
0.00070624
0.00248589
-0.00113974
0.000597666
0.00274811
-0.00153158
0.000273098
0.00297061
-0.0018096
-0.000428381
0.00301774
-0.00190857
-0.00140487
0.00274186
-0.00176122
-0.00259617
0.00207309
-0.00119399
-0.003923
0.000902093
-0.00560858
-0.00087415
0.000723422
-0.00534714
-0.00185467
0.00109967
-0.00348579
-0.000117529
0.00109647
-0.00218029
0.00109647
0.000965612
-0.00119164
0.0017416
0.000890403
-0.00048039
0.00204761
0.000879885
-3.9342e-05
0.00211926
0.000815062
0.000306549
0.00199975
0.000722802
0.000452437
0.00184891
0.000666183
0.000521663
0.00179319
0.000490811
0.000729339
0.0018342
0.000285772
0.000686259
0.00185891
0.000175504
0.000378739
0.00179269
3.61726e-05
0.000244567
0.00181383
-9.22181e-05
4.90449e-05
0.00193948
-0.000243026
-0.000233676
0.00200657
-0.000484615
-0.000706613
0.00193799
-0.000748263
-0.00142616
0.00166388
-0.000895738
-0.00240221
0.00101794
-0.000640831
-0.00369962
-0.000238745
-0.00553121
-0.00201759
-0.000493105
-0.00403353
-0.00315411
-0.000728175
-0.00263559
-0.00184282
-0.000940606
-0.00175543
-0.000940609
-0.000999475
-0.00126217
-0.000501618
-0.00091758
-0.000913323
-0.000459301
-0.000635598
-0.000649789
-0.000734428
-0.00022176
-0.000429488
-0.000886802
0.000146021
-0.000230485
-0.000901871
0.000367696
-1.37723e-05
-0.000672571
0.00050059
0.000345597
-0.000303283
0.000615071
0.00033753
-0.000243645
0.000778641
-4.50616e-05
-0.000644186
0.00105261
-0.000288111
-0.000929944
0.00131704
-0.000498426
-0.000921353
0.00144971
-0.00071736
-0.000687462
0.00144674
-0.000977208
-0.000554643
0.00126177
-0.00132432
-0.000602332
0.000923478
-0.00181935
-0.0010212
0.00056641
-0.00269842
-0.00194428
-0.00411327
-0.00328239
-0.0031653
-0.00486967
-0.00492985
-0.0050965
-0.00580756
-0.00580756
-0.0061252
-0.00670627
-0.00598626
-0.00768104
-0.00547474
-0.0086317
-0.00461193
-0.00954432
-0.00340243
-0.0103161
-0.00183252
-0.0107447
0.000181631
-0.0103817
0.00219965
-0.010375
0.00377514
-0.01073
0.00497621
-0.0103189
0.00581593
-0.00955277
0.00629191
-0.00864679
0.00637456
-0.007682
0.00600276
-0.00672693
0.00506877
-0.00585987
0.003246
-0.00518692
-0.00498291
0.000474957
-0.000505578
0.0010755
0.000867665
-0.000423309
0.00117377
0.0011399
-0.000338119
0.00122251
0.00125858
-0.000237337
0.00125857
0.00124187
-0.00015642
0.00132432
0.00112783
-0.000119507
0.00143244
0.00096587
-0.000150726
0.00156669
0.000763616
-0.000201314
0.0017104
0.000515668
-0.000241889
0.00184242
0.000214119
-0.000251957
0.0019371
-0.000138552
-0.000212718
0.00195702
-0.000488849
-0.000153765
0.001856
-0.000774331
-0.000143962
0.00172372
-0.000934731
-0.000203362
0.00158849
-0.000968071
-0.000279385
0.0014676
-0.000913021
-0.000321697
0.00136658
-0.000781429
-0.000351602
0.00129393
-0.000570538
-0.000393367
0.00123833
-0.000302824
-0.000427782
0.00116111
-0.00046629
0.00106263
3.73728e-05
-0.000658521
-0.000154951
0.000236759
-0.000665351
0.000196492
0.00043319
-0.000584992
0.000427515
0.000543589
-0.000458121
0.000543587
0.000591283
-0.000354402
0.000643641
0.000568727
-0.000274328
0.000743445
0.000476134
-0.00026779
0.000822321
0.000315593
-0.000289421
0.00090776
7.15035e-05
-0.000293872
0.000981663
-0.000235605
-0.000272325
0.00100481
-0.000512094
-0.000257823
0.000974203
-0.000664303
-0.000293284
0.00090803
-0.000693768
-0.00036897
0.000823319
-0.000659605
-0.000452498
0.000751322
-0.000583835
-0.000536551
0.000692596
-0.000467911
-0.000591765
0.000633228
-0.00030281
-0.000628083
0.000570183
-9.72053e-05
-0.000665228
0.000444606
4.73941e-05
-0.000656446
0.000179146
-0.000574081
-0.000141581
-0.000169577
8.05356e-06
-0.00192868
-0.000255249
-0.000140241
-0.00111226
-0.000370393
-0.000206315
-0.000715656
-0.000436919
-0.000325057
-0.00043692
-0.000306398
-0.000520533
-0.000136946
-0.000105375
-0.000555172
6.33231e-05
-6.92112e-05
-0.000416681
5.8688e-05
-0.000131428
-0.000370201
6.69585e-05
-0.000265001
-0.000331832
6.74304e-05
-0.000434848
-0.000286921
3.52836e-05
-0.000525994
-0.000354343
2.72051e-05
-0.000498337
-0.000494596
4.66728e-05
-0.000380263
-0.000626286
5.92143e-05
-0.000190825
-0.000724185
7.00813e-05
-4.16294e-06
-0.000772099
1.85082e-05
7.89412e-05
-0.000661825
-0.000137185
5.28483e-05
-0.000437013
-0.000286235
8.53248e-06
-0.000258763
-0.000462949
5.17666e-06
-0.000125549
-0.000826554
7.30704e-05
-0.0015893
0.000976567
5.15155e-05
0.000748672
0.00122882
0.00034071
0.00103261
0.00105427
0.000518464
0.000903049
0.000648366
0.000486754
0.000648366
0.000223858
0.000206565
0.000402601
-0.00014025
-7.388e-05
8.43555e-05
-0.000338632
-0.000257528
-0.000149156
-0.000346533
-0.000478603
-0.000244722
-0.000360998
-0.000487989
-0.000391344
-0.000419366
-0.000425596
-0.000523673
-0.000441371
-0.00053985
-0.000443367
-0.00043717
-0.000677874
-0.000236668
-0.000482545
-0.000683856
-5.10184e-05
-0.000638942
-0.00053418
0.000135346
-0.000974207
-0.000265496
0.000349166
-0.00139447
2.73469e-05
0.000623419
-0.00171373
0.000256088
0.00100153
-0.0017028
0.000223432
0.00140144
-0.00119777
-3.01982e-07
0.00164337
-0.000351012
0.00153352
0.00161867
-0.00176229
0.0025725
0.0024409
-0.000654966
0.00312931
0.00284184
3.45033e-05
0.00317014
0.00285427
0.000461899
0.00285427
0.00247706
0.000636219
0.0023692
0.00182935
0.000670295
0.00179851
0.0011335
0.000520299
0.00123956
0.000508218
0.000153827
0.000649094
-2.72216e-05
-0.000157249
4.56821e-05
-0.000394908
-0.000349779
-0.000355477
-0.000769124
-0.00043094
-0.00013929
-0.00126989
-0.0003303
0.000363744
-0.00190006
-9.40775e-05
0.000874705
-0.00255832
0.000155251
0.00140869
-0.00309409
0.000302915
0.00198925
-0.0033576
0.000270833
0.0025558
-0.00321832
7.00237e-06
0.00302344
-0.00268001
-0.000500685
0.00326585
-0.00171017
-0.00119354
0.00309092
-0.00224003
0.00238061
0.00177623
-0.00345241
0.000629091
0.00269652
-0.00161949
0.00208233
0.00317038
-0.000556425
0.00296732
0.00328177
0.000239096
0.00328178
0.00306589
0.000786018
0.00318603
0.00263846
0.00104631
0.0028733
0.00207609
0.0010218
0.0024534
0.00135056
0.000815557
0.00194193
0.000569375
0.000586745
0.00123379
-0.000157499
0.000347546
0.000557193
-0.00085357
0.000210527
0.000760555
-0.00152831
0.000286533
0.00140637
-0.00220064
0.000483632
0.00205078
-0.00278827
0.000630628
0.00256857
-0.00318854
0.000588655
0.0029548
-0.00332059
0.000271779
0.00319847
-0.00315138
-0.000307397
0.00319791
-0.00263655
-0.00112337
0.00281155
-0.00170981
-0.00211717
0.00187584
-0.00380956
0.000363948
0.001491
-0.00466139
-0.000972174
0.00238615
-0.00234605
0.00086632
0.00284131
-0.00101154
0.00218275
0.00288524
0.000151229
0.00288524
0.00272724
0.000846235
0.00316557
0.00243155
0.00120292
0.00313293
0.00204238
0.00124701
0.00293089
0.0015708
0.00112671
0.00264861
0.00102625
0.00101467
0.00232262
0.000390785
0.000960565
0.00201808
-0.000287152
0.000859616
0.00205264
-0.000960207
0.000785135
0.00242179
-0.00154829
0.000848835
0.00270876
-0.00203918
0.000904713
0.00296491
-0.00241137
0.000791008
0.00314045
-0.00264502
0.000399272
0.00312389
-0.00262015
-0.000394139
0.00280373
-0.00221611
-0.00147424
0.00201992
-0.00139631
-0.00270161
0.000666729
-0.00486768
-0.00121234
0.000782357
-0.00507563
-0.00222279
0.00143066
-0.00271354
-0.000398358
0.0017416
-0.00119164
0.000965608
0.00188969
-0.000144954
0.00188969
0.00182337
0.000705495
0.00225465
0.00171327
0.00110224
0.00233003
0.00154966
0.0011727
0.00223765
0.00132011
0.00111963
0.00208552
0.0010354
0.00111073
0.00198184
0.000556735
0.00131039
0.00196303
1.02857e-05
0.00127805
0.00198691
-0.000393323
0.000986025
0.0019954
-0.000735214
0.000930575
0.00207398
-0.00101956
0.000915799
0.00221273
-0.00126654
0.00074668
0.00229787
-0.00139711
0.000255734
0.0022121
-0.0014202
-0.000452171
0.001745
-0.00125328
-0.00146038
0.00083715
-0.000714545
-0.00289648
-0.0005826
-0.00517938
-0.00242044
-0.000606927
-0.00409074
-0.00353207
-0.000631011
-0.002354
-0.00217826
-0.000501616
-0.00126217
-0.000999478
-0.000269653
-0.000608887
-0.000269654
7.1655e-05
-1.74741e-05
-7.76459e-05
0.000318826
0.000248964
-0.000128329
0.000512142
0.000389791
-0.000297211
0.000621812
0.000523439
-0.000415357
0.000667343
0.000744252
-0.000351635
0.000567283
0.00121337
-0.000106211
0.000439768
0.00121933
-5.74139e-05
0.000403929
0.000725999
-0.000348327
0.000404149
0.000482189
-0.000481783
0.000472504
0.000319312
-0.000393225
0.000615006
0.000134699
-0.000217986
0.000748549
-0.000203053
-0.000229403
0.0008174
-0.000706423
-0.000416932
0.00079346
-0.0013381
-0.00111954
0.000655553
-0.00240403
-0.00229883
-0.00413321
-0.00367299
-0.00375613
-0.00520427
-0.00576175
-0.00544488
-0.00670627
-0.0061252
-0.00701071
-0.00701071
-0.00678443
-0.00792479
-0.00620691
-0.00896026
-0.00531359
-0.0100478
-0.00403981
-0.0110665
-0.00228208
-0.0117582
0.000187117
-0.0116375
0.00267075
-0.0116393
0.00444238
-0.0117756
0.00571764
-0.0111119
0.0065948
-0.0101106
0.00711844
-0.00903574
0.00723514
-0.00800176
0.00685981
-0.00705803
0.00585489
-0.00619304
0.00380383
-0.00553989
-0.00531229
0.000452026
-0.000351556
0.000975053
0.000848343
-0.000296979
0.00107446
0.00115119
-0.000236279
0.00115595
0.00132432
-0.000156422
0.00124187
0.00136613
-8.36164e-05
0.00136613
0.00130459
-5.32565e-05
0.00154724
0.00117194
-8.22729e-05
0.00178161
0.000964404
-0.000132406
0.00205034
0.000665742
-0.000180009
0.0023211
0.000256111
-0.00019428
0.00254102
-0.000222739
-0.000147703
0.00258359
-0.00063939
-8.79144e-05
0.00236057
-0.000931461
-8.83528e-05
0.00210414
-0.00107292
-0.000139908
0.00186986
-0.00107648
-0.000208763
0.00167994
-0.000977098
-0.000262651
0.00152986
-0.000799406
-0.000297334
0.00141359
-0.000566207
-0.000311123
0.00131627
-0.000299606
-0.000326938
0.00122147
-0.000378244
0.00114129
7.49079e-05
-0.000441046
-0.000140349
0.000283653
-0.000480681
0.000171467
0.000493346
-0.000437583
0.00041914
0.000643642
-0.000354403
0.000591279
0.000736672
-0.000269675
0.000736671
0.000753358
-0.000193154
0.000866653
0.00068118
-0.000182821
0.000995046
0.000508543
-0.000194781
0.00114277
0.00020578
-0.000194739
0.00129916
-0.000207831
-0.000165551
0.0013897
-0.000585288
-0.000148902
0.00135286
-0.000794613
-0.0001982
0.00122764
-0.000841085
-0.000293351
0.0010748
-0.000788658
-0.000387876
0.000946873
-0.000681731
-0.000463761
0.000840682
-0.000536403
-0.00051245
0.000737717
-0.000351612
-0.000534327
0.000622403
-0.000143036
-0.000529267
0.000454193
9.64373e-06
-0.000504558
0.000204103
-0.000435722
-7.44405e-05
-0.000100688
-0.000404884
-0.00186413
-0.00014049
-0.000409968
-0.00114315
-0.000172561
-0.000436154
-0.000685003
-0.000136946
-0.000520533
-0.000306399
1.53041e-05
-0.000574173
1.53039e-05
0.000152016
-0.00045084
0.000184295
0.000155177
-0.000349584
0.000222288
7.04811e-05
-0.000325875
0.000282746
-0.000142098
-0.00026667
0.000351935
-0.000425271