/*--------------------------------*- C++ -*----------------------------------*\
| =========                 |                                                 |
| \\      /  F ield         | OpenFOAM: The Open Source CFD Toolbox           |
|  \\    /   O peration     | Version:  1.7.1                                 |
|   \\  /    A nd           | Web:      www.OpenFOAM.com                      |
|    \\/     M anipulation  |                                                 |
\*---------------------------------------------------------------------------*/
FoamFile
{
    version     2.0;
    format      ascii;
    class       volVectorField;
    location    "1600";
    object      U;
}
// * * * * * * * * * * * * * * * * * * * * * * * * * * * * * * * * * * * * * //

dimensions      [0 1 -1 0 0 0 0];

internalField   nonuniform List<vector> 
4000
(
(0.000943614 -0.0027135 0.000943598)
(0.00243748 -0.00194107 0.00102771)
(0.00345882 -0.00133512 0.000970086)
(0.00370315 -0.0013168 0.000883133)
(0.00358976 -0.00141268 0.000850853)
(0.00318449 -0.00131463 0.000854221)
(0.00261567 -0.000912194 0.000826242)
(0.00197132 -0.000634754 0.000779235)
(0.00132702 -0.000605429 0.000747719)
(0.000715341 -0.000614979 0.000729293)
(0.000103893 -0.000554041 0.000730014)
(-0.00062205 -0.000410247 0.000761339)
(-0.00143009 -0.000439441 0.000783878)
(-0.00212951 -0.00087745 0.000771602)
(-0.00250912 -0.00127621 0.000741019)
(-0.00258562 -0.00114901 0.000715627)
(-0.00252499 -0.000477988 0.000723679)
(-0.00232089 -3.43259e-05 0.000775916)
(-0.00156815 -0.00065537 0.000792985)
(-0.000609152 -0.00161125 0.00056713)
(-0.000795213 -0.00524467 -0.000795224)
(-0.00132052 -0.00523541 -0.00011653)
(-0.00134363 -0.00359656 -9.45116e-05)
(-0.00071799 -0.00193196 -0.000146749)
(-0.000449231 -0.000718059 -2.53037e-05)
(-0.000574066 -0.000546514 0.000109606)
(-0.000893441 -0.000880576 0.000187558)
(-0.000972305 -0.000992079 0.000247784)
(-0.00103203 -0.000995898 0.000256027)
(-0.00108439 -0.000978447 0.000204022)
(-0.00105306 -0.000945488 0.000151179)
(-0.000906167 -0.00086607 0.000146855)
(-0.00065941 -0.00080045 9.69158e-05)
(-0.000476885 -0.000667398 4.12589e-05)
(-0.000351205 -0.00073267 1.48848e-05)
(-8.68335e-05 -0.00117389 -5.55008e-05)
(0.000695133 -0.00230918 -2.68077e-05)
(0.00129639 -0.00413349 6.88647e-05)
(0.0014672 -0.00480091 -0.00021227)
(0.000691626 -0.00285719 -0.000862134)
(0.00132798 0.00363982 0.00132798)
(0.000186246 0.000977692 0.00105546)
(-0.00396376 -0.00139562 4.01876e-05)
(-0.00629658 -0.00304494 -0.000468835)
(-0.0066018 -0.00291966 -0.000276755)
(-0.00581688 -0.00215438 -0.000312346)
(-0.00461687 -0.00161101 -0.000399244)
(-0.00380373 -0.00147067 -0.000397759)
(-0.00297718 -0.00155392 -0.000488402)
(-0.00199282 -0.00159263 -0.000613457)
(-0.000858139 -0.0016442 -0.000705129)
(0.000505534 -0.00173757 -0.000583908)
(0.00172191 -0.00186333 -0.000517745)
(0.00319874 -0.00220062 -0.000386556)
(0.0041332 -0.00302716 -0.000250362)
(0.00440762 -0.00331621 -0.000369135)
(0.00354783 -0.00230529 -0.000144566)
(-0.000203153 -0.000144202 0.000841358)
(-0.0030982 0.00237456 0.00146069)
(-0.00247139 0.00286985 0.00178005)
(0.00343697 -0.00884775 0.00343697)
(0.00685405 -0.00385167 0.00345553)
(0.00739165 0.00116288 0.00311688)
(0.00502461 0.00329089 0.00257078)
(0.000483536 0.000981869 0.00176688)
(-0.00351184 -0.0017231 0.000288849)
(-0.00449258 -0.00214226 -0.000462457)
(-0.00448747 -0.00234869 -0.000863209)
(-0.00334957 -0.00222515 -0.001397)
(-0.00166019 -0.00205118 -0.00178499)
(0.000222633 -0.00226673 -0.00183005)
(0.00166765 -0.00253167 -0.00137085)
(0.00202007 -0.00241439 -0.000809486)
(0.00165471 -0.00214982 2.05297e-05)
(-0.00144163 -0.000409268 0.00142433)
(-0.00527613 0.00170589 0.00196939)
(-0.00845861 0.00179502 0.00259782)
(-0.00957183 -0.00129246 0.00317629)
(-0.00788362 -0.00640603 0.00345707)
(-0.0036278 -0.0120519 0.00337706)
(0.00207786 -0.018951 0.00207785)
(0.00553577 -0.0129658 0.00288018)
(0.00741121 -0.00738276 0.0034337)
(0.00884553 -0.0031187 0.00375512)
(0.00861451 -0.000964305 0.00375237)
(0.00700614 0.000534539 0.00350917)
(0.00405489 0.00110693 0.00294789)
(0.000463837 0.000161561 0.00184493)
(-0.000771467 -0.000582563 0.00056203)
(-0.000450892 -0.000553342 -6.16115e-05)
(-1.56786e-06 -0.000399984 0.000293577)
(-0.000580817 -5.43594e-05 0.00126729)
(-0.00281106 0.000163686 0.00223607)
(-0.00529129 -0.000200398 0.00302099)
(-0.00731793 -0.00112872 0.00355503)
(-0.00853071 -0.00248859 0.00374254)
(-0.008548 -0.00494985 0.00361887)
(-0.0072657 -0.00923332 0.00323487)
(-0.00554449 -0.0150328 0.00272966)
(-0.00196508 -0.0218304 0.00201853)
(0.000923101 -0.0249008 0.000923092)
(0.00279649 -0.0189545 0.00203252)
(0.0022708 -0.0133995 0.00277082)
(0.00241568 -0.00936877 0.00339757)
(0.00178212 -0.0070555 0.0037674)
(0.00103393 -0.00508192 0.0038721)
(0.000837916 -0.0034436 0.00375609)
(0.000984549 -0.0024144 0.00343956)
(0.00112493 -0.00172251 0.00321167)
(0.00125962 -0.00140565 0.00320991)
(0.00142856 -0.00147866 0.00334446)
(0.0013712 -0.00210948 0.00330533)
(0.00143327 -0.00306272 0.00335495)
(0.00120515 -0.00437075 0.00350465)
(0.000421783 -0.00593866 0.00366)
(-0.000571826 -0.00776792 0.00360944)
(-0.00137764 -0.0104106 0.00322544)
(-0.00152744 -0.0147666 0.00262896)
(-0.00244807 -0.0206905 0.00196957)
(-0.000706555 -0.0274872 0.000948826)
(2.1667e-05 -0.0271892 2.1653e-05)
(0.000448746 -0.021997 0.00121525)
(-0.00207625 -0.0175027 0.00159451)
(-0.00297885 -0.0147191 0.00172829)
(-0.00377492 -0.0130579 0.00164962)
(-0.00381467 -0.0119974 0.00144883)
(-0.00314826 -0.0112932 0.00116143)
(-0.0019815 -0.0106773 0.000937548)
(-0.00034208 -0.00994922 0.000957649)
(0.000927082 -0.00933382 0.00148189)
(0.00184168 -0.00912817 0.00165493)
(0.00272459 -0.00974022 0.00125192)
(0.0039687 -0.0105202 0.00105731)
(0.00493425 -0.0113265 0.00112072)
(0.00537022 -0.0122229 0.00129257)
(0.00514755 -0.0134224 0.00147959)
(0.00417944 -0.0153301 0.00157828)
(0.00301541 -0.0184205 0.0014638)
(9.10065e-05 -0.0233149 0.00116591)
(0.000255546 -0.0293171 4.07823e-05)
(-0.00114251 -0.025558 -0.00114252)
(-0.00212934 -0.0218596 -8.84518e-05)
(-0.0057757 -0.0191588 -0.000335856)
(-0.00731619 -0.0178976 -0.00077884)
(-0.00802545 -0.0173761 -0.00137301)
(-0.00760565 -0.0172172 -0.00195683)
(-0.00625533 -0.0171209 -0.00248617)
(-0.00422551 -0.0168779 -0.00286562)
(-0.0016861 -0.0163911 -0.00294934)
(0.000145961 -0.0157703 -0.00227849)
(0.00166559 -0.0155581 -0.00210558)
(0.00325072 -0.0161217 -0.00267391)
(0.0055746 -0.0166433 -0.00275251)
(0.00754851 -0.0169853 -0.00247169)
(0.00883862 -0.0172117 -0.00201038)
(0.00918506 -0.017522 -0.00145697)
(0.00838148 -0.0182392 -0.000888518)
(0.00666965 -0.0197636 -0.000467963)
(0.00270726 -0.0228615 -0.00018109)
(0.00148865 -0.0271159 -0.00121212)
(-0.00314163 -0.0198134 -0.00314164)
(-0.00562506 -0.0176688 -0.00260212)
(-0.0100163 -0.016634 -0.00341123)
(-0.0118964 -0.0166195 -0.0043175)
(-0.0124203 -0.0169646 -0.00524238)
(-0.0115459 -0.017437 -0.00609975)
(-0.00951697 -0.0178662 -0.00680971)
(-0.00660056 -0.0181077 -0.00726738)
(-0.0030546 -0.0180437 -0.0072383)
(-0.000598138 -0.0177255 -0.00623008)
(0.00184548 -0.0176393 -0.0060717)
(0.00417312 -0.017949 -0.00699349)
(0.00756526 -0.0180082 -0.00712596)
(0.0104621 -0.017804 -0.00674343)
(0.0124758 -0.0174397 -0.00607962)
(0.0133207 -0.017043 -0.00527185)
(0.0127535 -0.0167993 -0.00440227)
(0.0107811 -0.0169722 -0.00354971)
(0.00616318 -0.0182621 -0.00277422)
(0.00352413 -0.0208189 -0.00331616)
(-0.00647245 -0.0126148 -0.00647246)
(-0.0111313 -0.0107668 -0.0075287)
(-0.0158299 -0.00990129 -0.00940707)
(-0.0177533 -0.00968962 -0.0112573)
(-0.0180539 -0.00962449 -0.0130753)
(-0.0168266 -0.00956778 -0.0147856)
(-0.0142475 -0.00941314 -0.0163175)
(-0.0104437 -0.00906546 -0.0175013)
(-0.00564429 -0.00847146 -0.0179534)
(-0.00193027 -0.0078508 -0.0166297)
(0.00268062 -0.00778028 -0.0165034)
(0.00639216 -0.00835608 -0.0177404)
(0.0111526 -0.00891303 -0.0173453)
(0.0149796 -0.00926979 -0.0162161)
(0.0175845 -0.00946562 -0.0147489)
(0.0188129 -0.00957412 -0.0130953)
(0.0184902 -0.00969882 -0.0113424)
(0.0165203 -0.00999548 -0.00957073)
(0.0116977 -0.0110104 -0.007781)
(0.00693064 -0.0131595 -0.00677852)
(0.00102772 -0.00194107 0.00243746)
(0.0025605 -0.00162694 0.00256048)
(0.003685 -0.00118344 0.00245488)
(0.00406387 -0.000992474 0.00229586)
(0.00394729 -0.000983731 0.00220584)
(0.00350808 -0.000936319 0.00219295)
(0.00287539 -0.000782489 0.00215248)
(0.00218557 -0.000730982 0.00208504)
(0.00151753 -0.000790816 0.00204791)
(0.000846504 -0.000815278 0.00203728)
(0.000130909 -0.00071414 0.00205303)
(-0.000705959 -0.000490331 0.00207628)
(-0.00158786 -0.000393392 0.00207956)
(-0.00234232 -0.000646027 0.00202889)
(-0.00274894 -0.000934665 0.00195648)
(-0.0028643 -0.000836037 0.00192019)
(-0.00281754 -0.00045534 0.00195081)
(-0.00250678 -0.000248509 0.00203404)
(-0.00172496 -0.000381526 0.00204032)
(-0.000661817 -0.000681348 0.00172109)
(-0.000116529 -0.00523542 -0.00132053)
(1.17385e-05 -0.00473541 1.17341e-05)
(0.000275583 -0.00322735 0.000515247)
(0.000650564 -0.00192273 0.000433207)
(0.000645196 -0.000970151 0.000586496)
(0.000483683 -0.000710935 0.000789489)
(0.000160754 -0.000994229 0.000909757)
(-0.000108901 -0.00126444 0.000993967)
(-0.000428292 -0.00127652 0.00101455)
(-0.00081447 -0.00124125 0.000955923)
(-0.00117028 -0.00115156 0.000885199)
(-0.00135469 -0.00103572 0.000823185)
(-0.00131325 -0.000952088 0.000729991)
(-0.00121737 -0.000990686 0.000673087)
(-0.00109838 -0.00119164 0.000627821)
(-0.000925878 -0.0014772 0.000548325)
(-0.000534845 -0.00226357 0.000622101)
(-1.30235e-05 -0.00361831 0.000567678)
(0.000432613 -0.00451933 -0.000182394)
(0.000355197 -0.00476806 -0.00135555)
(0.00105546 0.00097768 0.000186215)
(0.0011397 -0.000634179 0.0011397)
(-0.00134074 -0.00254955 0.000160098)
(-0.00335902 -0.0031673 -0.000672603)
(-0.00403973 -0.00287065 -0.000383373)
(-0.00349813 -0.0022448 -0.000182997)
(-0.00268697 -0.00163905 -0.000336191)
(-0.00231873 -0.00141711 -0.000342193)
(-0.00202565 -0.00139034 -0.000439005)
(-0.00166877 -0.00139507 -0.000597761)
(-0.0012326 -0.00144982 -0.000684914)
(-0.000628908 -0.00163885 -0.000596211)
(0.000170334 -0.00198696 -0.000484181)
(0.00108707 -0.00251143 -0.000175656)
(0.00185935 -0.00318917 -0.000157189)
(0.00186119 -0.00342761 -0.000312144)
(0.000885701 -0.0029748 0.00021401)
(-0.00153479 -0.00128156 0.00140681)
(-0.0028947 0.000755076 0.00194573)
(-0.00221896 0.00253254 0.0021244)
(0.00345552 -0.00385164 0.00685405)
(0.00636896 -0.000761364 0.00636897)
(0.00705498 0.002074 0.00521944)
(0.00522336 0.00260075 0.0039981)
(0.00215731 0.000739589 0.00294963)
(-0.00126215 -0.00204451 0.00095597)
(-0.00263453 -0.00228529 -0.000479986)
(-0.00300366 -0.00219347 -0.00114855)
(-0.00240625 -0.00199893 -0.00189958)
(-0.00151237 -0.00176076 -0.00246583)
(-0.000656585 -0.00206935 -0.00236157)
(8.72825e-06 -0.00251219 -0.00166593)
(8.18708e-05 -0.0027728 -0.000767401)
(-0.000991848 -0.00256548 0.000775658)
(-0.00284426 -0.00113582 0.00213221)
(-0.00586335 0.000877755 0.00312671)
(-0.00849246 0.0016737 0.00436151)
(-0.00943764 0.000178951 0.00578211)
(-0.00768815 -0.00308242 0.00682903)
(-0.00390274 -0.00680617 0.00719659)
(0.00288018 -0.0129658 0.00553578)
(0.0068414 -0.00852283 0.0068414)
(0.00939587 -0.00405294 0.00738869)
(0.0107931 -0.00043852 0.00712415)
(0.0105659 0.00114149 0.0063477)
(0.00888269 0.00160194 0.00539929)
(0.00558516 0.00128735 0.00414415)
(0.00231277 -9.59038e-05 0.00239467)
(0.000261945 -0.00186285 -0.000347309)
(-0.000701244 -0.00210377 -0.00182024)
(-0.00133188 -0.00212406 -0.00106534)
(-0.00272295 -0.00142653 0.000894591)
(-0.00509958 -0.000481943 0.00273696)
(-0.0079502 9.28604e-05 0.00427308)
(-0.0102336 0.000261921 0.00559024)
(-0.0113525 -0.000398905 0.0065392)
(-0.0112468 -0.00246109 0.007108)
(-0.00964428 -0.00616494 0.00716184)
(-0.00705943 -0.0108314 0.00659383)
(-0.00285494 -0.0157165 0.00525971)
(0.00203253 -0.0189545 0.00279648)
(0.00549845 -0.0140105 0.00549845)
(0.00650464 -0.00881292 0.00716102)
(0.00725543 -0.0043361 0.00805945)
(0.00696907 -0.00140258 0.00835282)
(0.00618062 0.000827966 0.00801441)
(0.00496521 0.00212645 0.00724103)
(0.00361509 0.00251449 0.00620409)
(0.00209957 0.00272452 0.00506975)
(0.000909897 0.00276312 0.00412568)
(0.000500217 0.00253144 0.00442577)
(-0.000643427 0.00208259 0.00531055)
(-0.0020491 0.00160395 0.00627282)
(-0.00358442 0.000822956 0.00722592)
(-0.00497638 -0.000568124 0.00791676)
(-0.00607178 -0.0026375 0.00814279)
(-0.00651527 -0.00584911 0.00782961)
(-0.00600562 -0.0106272 0.00699296)
(-0.00532868 -0.0161127 0.00538042)
(-0.00187784 -0.0213888 0.00262473)
(0.00121525 -0.0219969 0.000448731)
(0.00427676 -0.0169985 0.00427675)
(0.00352033 -0.0118954 0.00644073)
(0.00330066 -0.00738077 0.00758923)
(0.00257803 -0.00406966 0.00815502)
(0.00194213 -0.00172538 0.00828786)
(0.0018142 -0.000318546 0.00816088)
(0.00173256 0.000358562 0.00790947)
(0.00165155 0.000777974 0.00767506)
(0.00152403 0.000759714 0.00755153)
(0.00157958 0.000576509 0.00764002)
(0.00134123 0.000202602 0.00774942)
(0.00109015 -0.000301009 0.00781593)
(0.000713557 -0.00108054 0.00796359)
(-7.28361e-05 -0.00257319 0.00807561)
(-0.0010124 -0.00496973 0.00795283)
(-0.00206109 -0.00841873 0.00743856)
(-0.00261654 -0.0131183 0.00639017)
(-0.00391818 -0.018607 0.00425329)
(-0.00102103 -0.0238513 0.000303862)
(-8.8447e-05 -0.0218596 -0.00212936)
(0.00237884 -0.0171969 0.00237883)
(-3.96032e-05 -0.0128728 0.00443581)
(-0.000956594 -0.00939619 0.0051662)
(-0.00173575 -0.00690708 0.00514463)
(-0.00176976 -0.00501601 0.00487367)
(-0.00131488 -0.00343072 0.00464994)
(-0.000647527 -0.00188628 0.0045985)
(0.000345486 -0.000349668 0.00490059)
(0.00106996 0.000495961 0.00548839)
(0.00180786 0.00046174 0.00555232)
(0.00241542 -0.000553538 0.00492508)
(0.00313318 -0.0020118 0.0045217)
(0.00359908 -0.0036015 0.00448448)
(0.00375247 -0.00529463 0.00473267)
(0.00342843 -0.00732822 0.00502137)
(0.00233942 -0.00997757 0.00506187)
(0.00114437 -0.0135015 0.00443055)
(-0.00192017 -0.0182676 0.00234455)
(0.000293729 -0.0231066 -0.00232704)
(-0.00260212 -0.0176687 -0.00562508)
(-0.00212245 -0.0139606 -0.00212246)
(-0.00581499 -0.011518 -0.00108178)
(-0.0072099 -0.0103322 -0.0011713)
(-0.00775412 -0.0096792 -0.00180442)
(-0.0071424 -0.00940105 -0.00260383)
(-0.00567145 -0.00933366 -0.003221)
(-0.00366368 -0.00935823 -0.00343252)
(-0.00134109 -0.00932265 -0.00295442)
(0.000179037 -0.00889707 -0.00132653)
(0.00195457 -0.00891741 -0.00107645)
(0.00333764 -0.00939006 -0.00251363)
(0.0054752 -0.0094649 -0.00314475)
(0.00739951 -0.00949698 -0.00304395)
(0.00871251 -0.00960894 -0.00249994)
(0.00911015 -0.00992536 -0.0018219)
(0.00835668 -0.0106233 -0.00125559)
(0.00673923 -0.0118895 -0.0011781)
(0.00267675 -0.0144885 -0.00228041)
(0.00286617 -0.018354 -0.00586085)
(-0.00752869 -0.0107668 -0.0111313)
(-0.0118298 -0.0074783 -0.0118298)
(-0.0166474 -0.00550902 -0.0141007)
(-0.018565 -0.0044193 -0.0166815)
(-0.0189583 -0.00359683 -0.0193471)
(-0.0179099 -0.00288908 -0.0218994)
(-0.0156175 -0.00215746 -0.0242088)
(-0.0121238 -0.00129055 -0.026006)
(-0.00747276 -0.000231688 -0.0267636)
(-0.00316979 0.000959206 -0.0252884)
(0.00415749 0.00102189 -0.0252145)
(0.00850212 -8.30347e-05 -0.0265712)
(0.0131663 -0.00107912 -0.0258278)
(0.0166616 -0.00194689 -0.0240547)
(0.0189336 -0.00273171 -0.0218048)
(0.019902 -0.00349754 -0.0193017)
(0.0193969 -0.00436499 -0.0167167)
(0.0173533 -0.00551393 -0.0142427)
(0.012343 -0.00757976 -0.0121019)
(0.00788369 -0.0110584 -0.0115)
(0.000970091 -0.00133514 0.00345879)
(0.00245489 -0.00118345 0.00368497)
(0.00362331 -0.000987517 0.00362329)
(0.0041798 -0.000839469 0.00350794)
(0.00418279 -0.000802402 0.0034746)
(0.00382103 -0.000700751 0.00355341)
(0.00321258 -0.000635169 0.00362821)
(0.00251969 -0.000694922 0.003682)
(0.00180751 -0.000812737 0.00373043)
(0.0010339 -0.000859768 0.00376701)
(0.000153785 -0.000740253 0.00378413)
(-0.000864783 -0.000489575 0.00372544)
(-0.00185081 -0.000349917 0.00362558)
(-0.00263837 -0.000531493 0.00347759)
(-0.00302312 -0.000829679 0.00331224)
(-0.00308019 -0.000830638 0.00319155)
(-0.00291225 -0.000686793 0.00314496)
(-0.00244459 -0.000570648 0.00314087)
(-0.00163866 -0.000562477 0.00303704)
(-0.000623765 -0.000579217 0.00269813)
(-9.45148e-05 -0.00359655 -0.00134364)
(0.000515242 -0.00322735 0.000275573)
(0.00106674 -0.00253551 0.00106674)
(0.00140748 -0.00158571 0.00116713)
(0.00146431 -0.000898385 0.00133011)
(0.00136583 -0.00063567 0.00154228)
(0.00110384 -0.000893459 0.00166656)
(0.000697335 -0.00118925 0.00177442)
(0.000170437 -0.00126471 0.00180959)
(-0.000555699 -0.00122993 0.00175276)
(-0.00127476 -0.00109455 0.00167612)
(-0.00175133 -0.000973151 0.00158669)
(-0.00189984 -0.000958248 0.00147453)
(-0.00184835 -0.00109057 0.00141412)
(-0.0016915 -0.00133502 0.00136639)
(-0.00147675 -0.00154399 0.00129384)
(-0.00113761 -0.00202909 0.00128829)
(-0.000596252 -0.00272872 0.00107408)
(-3.75443e-05 -0.0032577 9.14663e-05)
(0.000252688 -0.00376662 -0.00136197)
(4.01809e-05 -0.00139563 -0.0039638)
(0.000160086 -0.00254956 -0.00134076)
(-0.000963747 -0.00312796 -0.000963748)
(-0.0021767 -0.00295964 -0.00105412)
(-0.0025407 -0.00255642 -0.000539817)
(-0.00194658 -0.00202025 -0.000144992)
(-0.00128587 -0.00145299 -0.000341655)
(-0.00120034 -0.00122889 -0.000449703)
(-0.00127894 -0.00118683 -0.000575328)
(-0.00143972 -0.00111254 -0.000739191)
(-0.0015224 -0.00117966 -0.000796887)
(-0.00131399 -0.00147651 -0.000683144)
(-0.000850272 -0.00193947 -0.000475963)
(-0.000128117 -0.00249214 -0.000157782)
(0.000654087 -0.00306908 -0.000142218)
(0.00082986 -0.00335581 -0.000342625)
(0.000283709 -0.00332097 -9.61317e-05)
(-0.000863037 -0.00258988 0.000368791)
(-0.00162814 -0.00119931 1.42665e-05)
(-0.000873422 0.000265476 -0.0019717)
(0.00311687 0.00116291 0.00739164)
(0.00521943 0.00207401 0.00705497)
(0.00574815 0.00261827 0.00574815)
(0.00434456 0.00198095 0.00426842)
(0.00206038 0.000137067 0.00294713)
(-0.000338551 -0.002007 0.00090612)
(-0.00162252 -0.00213731 -0.000657433)
(-0.0019567 -0.00194981 -0.0013554)
(-0.00175313 -0.00164204 -0.00211431)
(-0.00144618 -0.00127099 -0.00269213)
(-0.00115557 -0.0017043 -0.00248544)
(-0.00093965 -0.00240958 -0.00167456)
(-0.00100751 -0.00282088 -0.000660791)
(-0.00168638 -0.00275607 0.000672208)
(-0.00294909 -0.00170542 0.00208797)
(-0.00521114 0.000165189 0.00349763)
(-0.0073186 0.00151521 0.00516657)
(-0.00809733 0.00159629 0.00696701)
(-0.00667337 0.000459611 0.008339)
(-0.00369052 -0.0011153 0.008633)
(0.0034337 -0.00738273 0.00741122)
(0.00738868 -0.00405292 0.00939589)
(0.0100108 -0.00088901 0.0100108)
(0.0110717 0.00136335 0.00933629)
(0.0105871 0.00197534 0.00809483)
(0.00883729 0.00180419 0.00655986)
(0.00570864 0.000967719 0.004704)
(0.00282288 -0.000700042 0.00238715)
(0.000668874 -0.00226507 -0.000745618)
(-0.000772037 -0.00230994 -0.00245057)
(-0.00173089 -0.00248133 -0.00158894)
(-0.00332402 -0.00228597 0.000610102)
(-0.00563167 -0.00130244 0.00291167)
(-0.00841169 -0.000186799 0.00500031)
(-0.0108253 0.000572983 0.00686379)
(-0.0121819 0.000604374 0.00836736)
(-0.0122139 -0.000580037 0.0094667)
(-0.0106697 -0.00316086 0.00981539)
(-0.00771877 -0.0063439 0.00897229)
(-0.00341177 -0.00980297 0.00680944)
(0.00277082 -0.0133995 0.00227079)
(0.00716102 -0.00881291 0.00650464)
(0.00913389 -0.0047414 0.00913389)
(0.0102538 -0.00117631 0.010326)
(0.0101497 0.00124459 0.0103412)
(0.00899771 0.00269409 0.00952723)
(0.00719029 0.00321485 0.00817902)
(0.00510991 0.00290236 0.00649211)
(0.00274915 0.0024646 0.00433313)
(0.000674525 0.0018447 0.00218649)
(-0.000633971 0.00169201 0.0028229)
(-0.00252925 0.00179377 0.00486056)
(-0.00469299 0.00196008 0.00673042)
(-0.00688075 0.00190118 0.00829643)
(-0.00870658 0.0012261 0.00947598)
(-0.00976971 -0.000362337 0.0101104)
(-0.00983586 -0.00308974 0.00991247)
(-0.00879616 -0.00688501 0.00870659)
(-0.00700554 -0.0110094 0.00606537)
(-0.00254829 -0.0154397 0.00167095)
(0.00159452 -0.0175027 -0.00207626)
(0.00644074 -0.0118954 0.00352032)
(0.00716502 -0.00726752 0.00716501)
(0.00762202 -0.00307385 0.00921363)
(0.0073078 0.000104048 0.0101858)
(0.00637491 0.00209857 0.0100035)
(0.00537083 0.00277567 0.00929412)
(0.00424917 0.0025751 0.00841784)
(0.00307225 0.00234322 0.0075517)
(0.00193382 0.00211051 0.00701544)
(0.000948101 0.00173274 0.00712346)
(-0.000345503 0.00135394 0.00768372)
(-0.0017427 0.00141159 0.00836378)
(-0.00323033 0.0014251 0.00918415)
(-0.00470957 0.000614849 0.00988484)
(-0.00584099 -0.00138231 0.00985617)
(-0.00652391 -0.00463854 0.00889242)
(-0.00634811 -0.00892322 0.00687271)
(-0.00610305 -0.0135476 0.00317705)
(-0.00136162 -0.0188894 -0.00261049)
(-0.000335855 -0.0191587 -0.00577571)
(0.00443582 -0.0128728 -3.96175e-05)
(0.00365873 -0.00807224 0.00365872)
(0.00361185 -0.00367286 0.00547241)
(0.00313942 6.6815e-05 0.00613937)
(0.00313128 0.00288574 0.00640148)
(0.00297467 0.00433845 0.00601909)
(0.00266182 0.00507057 0.00551866)
(0.00245713 0.00552229 0.00544507)
(0.00202709 0.00568439 0.00577046)
(0.00134728 0.0055638 0.005852)
(0.000739506 0.0051525 0.00538646)
(0.000385949 0.00459175 0.0052456)
(-0.000148289 0.00367605 0.00560496)
(-0.000563016 0.00185271 0.00581407)
(-0.00119908 -0.00104649 0.00577488)
(-0.00218905 -0.0047736 0.00523423)
(-0.00264792 -0.00913241 0.00345324)
(-0.00406003 -0.0138816 -0.000395929)
(0.000518507 -0.0200003 -0.00626723)
(-0.00341123 -0.016634 -0.0100163)
(-0.00108177 -0.011518 -0.005815)
(-0.0033732 -0.00806763 -0.00337321)
(-0.00344113 -0.00595718 -0.00249675)
(-0.00342736 -0.00458823 -0.00308304)
(-0.00277528 -0.00377874 -0.00393678)
(-0.00147262 -0.00342824 -0.00405958)
(-7.73579e-05 -0.00350821 -0.00364769)
(0.00110641 -0.00365961 -0.00241484)
(0.0014898 -0.00262138 -0.00124844)
(0.00196845 -0.00274436 -0.00106356)
(0.00221855 -0.00402882 -0.00237195)
(0.00311589 -0.00406219 -0.00380241)
(0.00411426 -0.00409961 -0.00423656)
(0.00484223 -0.00444224 -0.00380158)
(0.00512709 -0.00520892 -0.00311009)
(0.00476878 -0.00652682 -0.00279536)
(0.00427112 -0.00857163 -0.00360297)
(0.00149202 -0.0119639 -0.00612491)
(0.00359337 -0.0170507 -0.0104283)
(-0.00940707 -0.00990129 -0.0158299)
(-0.0141007 -0.00550902 -0.0166474)
(-0.0191606 -0.00296717 -0.0191606)
(-0.0209948 -0.00148286 -0.0222569)
(-0.0212299 -0.000313295 -0.0255302)
(-0.0200338 0.000705091 -0.0286707)
(-0.0176679 0.00177741 -0.0315606)
(-0.0140616 0.00303242 -0.0338936)
(-0.00908724 0.00454903 -0.0350292)
(-0.00401443 0.00625524 -0.0333742)
(0.00525525 0.00630746 -0.0333485)
(0.0103486 0.00470897 -0.0349221)
(0.0153405 0.00325904 -0.033821)
(0.0189 0.00200249 -0.0314998)
(0.0211854 0.000878462 -0.0286326)
(0.022197 -0.000202861 -0.0254843)
(0.021751 -0.00141351 -0.0222862)
(0.0197313 -0.00295835 -0.0193213)
(0.0144698 -0.00555082 -0.0169575)
(0.00965649 -0.0100479 -0.0162351)
(0.000883135 -0.00131683 0.00370312)
(0.00229586 -0.000992494 0.00406385)
(0.00350795 -0.000839479 0.00417978)
(0.00421024 -0.00072129 0.00421023)
(0.0044009 -0.000601007 0.00433289)
(0.00419111 -0.00045133 0.00458852)
(0.00368085 -0.000424801 0.00488963)
(0.0030159 -0.000542949 0.00519387)
(0.002234 -0.000697651 0.00545859)
(0.00129586 -0.00076489 0.00563731)
(0.000132799 -0.000628974 0.00567502)
(-0.00114644 -0.00037432 0.00546076)
(-0.00223875 -0.000255302 0.00516444)
(-0.00303265 -0.0004074 0.00483441)
(-0.00335378 -0.000716773 0.00451914)
(-0.00328898 -0.000859296 0.00425966)
(-0.00295963 -0.000844796 0.00409475)
(-0.00235106 -0.000851633 0.00396192)
(-0.00148651 -0.000964957 0.00371743)
(-0.000553177 -0.0012416 0.00335573)
(-0.000146748 -0.00193196 -0.000718012)
(0.000433205 -0.00192273 0.000650547)
(0.00116713 -0.00158571 0.00140747)
(0.00170867 -0.00103589 0.00170867)
(0.00197032 -0.000588158 0.00197356)
(0.00205166 -0.000424078 0.00226393)
(0.00188964 -0.000645799 0.00246386)
(0.00143996 -0.000897257 0.00266803)
(0.000759873 -0.00100709 0.00281082)
(-0.000287452 -0.000986272 0.00281427)
(-0.00137843 -0.000830707 0.00272241)
(-0.00212887 -0.000732651 0.00256497)
(-0.0024179 -0.000804543 0.00235985)
(-0.00237745 -0.000998985 0.00220111)
(-0.00214447 -0.00123106 0.00207323)
(-0.00181022 -0.00141422 0.00192924)
(-0.00134405 -0.00160583 0.00179681)
(-0.000674751 -0.00185959 0.00144129)
(-9.2846e-06 -0.00195466 0.000495285)
(0.00029386 -0.00180556 -0.000744946)
(-0.000468836 -0.00304495 -0.00629661)
(-0.000672606 -0.0031673 -0.00335904)
(-0.00105413 -0.00295964 -0.00217671)
(-0.00148056 -0.00257089 -0.00148056)
(-0.00135369 -0.00218994 -0.000581667)
(-0.000666801 -0.00164845 4.98051e-05)
(-0.000177463 -0.00115413 -3.33948e-05)
(-0.000294688 -0.000974007 -8.39008e-05)
(-0.000641934 -0.00090512 -0.000163388)
(-0.00123167 -0.000779269 -0.000310115)
(-0.00172367 -0.000872055 -0.000336923)
(-0.00182095 -0.00125594 -0.000224359)
(-0.00154938 -0.00177095 -9.02591e-05)
(-0.00100074 -0.00229483 6.87976e-05)
(-0.000257813 -0.00275939 -3.9838e-05)
(0.000219983 -0.00311402 -0.000466946)
(0.000247452 -0.00323905 -0.000720999)
(8.37953e-05 -0.00319184 -0.00107265)
(-4.76525e-05 -0.0028654 -0.00219634)
(0.000109846 -0.00189261 -0.00485143)
(0.00257077 0.00329089 0.00502459)
(0.00399809 0.00260075 0.00522335)
(0.00426842 0.00198095 0.00434456)
(0.00311013 0.000836309 0.00311013)
(0.00144063 -0.000908984 0.00198767)
(-1.46666e-05 -0.00209412 0.00051992)
(-0.000978786 -0.00198706 -0.000598752)
(-0.00119343 -0.00180951 -0.00107689)
(-0.00122974 -0.00140869 -0.00171953)
(-0.00136113 -0.00108429 -0.00224841)
(-0.00146375 -0.00155222 -0.00198231)
(-0.00148161 -0.00230035 -0.00118295)
(-0.0015459 -0.00278672 -0.00037003)
(-0.0019006 -0.00290349 0.00053526)
(-0.00265097 -0.00232229 0.00154616)
(-0.0040102 -0.000891418 0.00271896)
(-0.00562565 0.000759136 0.00436997)
(-0.00623665 0.00181918 0.00603893)
(-0.00517953 0.00229765 0.00719262)
(-0.00306843 0.00256118 0.00712377)
(0.00375511 -0.00311867 0.00884554)
(0.00712414 -0.000438506 0.0107931)
(0.00933627 0.00136335 0.0110717)
(0.0100744 0.00218178 0.0100744)
(0.00949502 0.00208093 0.00852924)
(0.00772147 0.00149928 0.00661095)
(0.00504376 0.000379973 0.00455294)
(0.00260253 -0.00131802 0.00226399)
(0.000668725 -0.00229858 -0.000274682)
(-0.000816524 -0.00226923 -0.001853)
(-0.00188051 -0.00258707 -0.00107301)
(-0.00332257 -0.00265044 0.000931891)
(-0.00531064 -0.00192141 0.00298524)
(-0.00774139 -0.000710153 0.00507242)
(-0.0100067 0.000395131 0.0071659)
(-0.0114682 0.00100782 0.00906993)
(-0.0116208 0.000783551 0.0104987)
(-0.0103882 -0.000443267 0.011235)
(-0.00768392 -0.00239699 0.0105713)
(-0.0038065 -0.0050983 0.00816798)
(0.00339758 -0.00936875 0.00241568)
(0.00805944 -0.00433608 0.00725543)
(0.010326 -0.00117631 0.0102538)
(0.0113916 0.00120189 0.0113917)
(0.0112165 0.00256976 0.0111291)
(0.0100233 0.00322385 0.0100353)
(0.00816324 0.00310836 0.00848873)
(0.00594553 0.0024079 0.00664017)
(0.00326433 0.0014648 0.00410742)
(0.00061289 0.000358086 0.0015875)
(-0.00175387 0.000143199 0.00226192)
(-0.00400444 0.000755436 0.00469124)
(-0.00641419 0.00144609 0.0069817)
(-0.00870598 0.00189799 0.00880362)
(-0.0105183 0.00181831 0.0101838)
(-0.0115026 0.00100535 0.0110304)
(-0.0114092 -0.000729353 0.0110152)
(-0.0101487 -0.00322982 0.00968828)
(-0.00788852 -0.00619739 0.00659455)
(-0.0031118 -0.0108185 0.0015595)
(0.00172829 -0.0147191 -0.00297886)
(0.00758924 -0.00738075 0.00330066)
(0.00921364 -0.00307384 0.00762202)
(0.0101402 7.72213e-05 0.0101402)
(0.00988844 0.00232206 0.0109896)
(0.00899897 0.00346286 0.0107511)
(0.00776715 0.00343166 0.0099301)
(0.00626134 0.00267493 0.00888084)
(0.00448452 0.00195482 0.00776108)
(0.00251148 0.0014708 0.00686199)
(0.000195393 0.000878534 0.00698921)
(-0.0021808 0.000750569 0.00799214)
(-0.00433236 0.001351 0.00896477)
(-0.00624626 0.00190852 0.00995394)
(-0.00782295 0.00172357 0.0107336)
(-0.00894425 0.000469978 0.0108496)
(-0.00930308 -0.00176785 0.00978396)
(-0.00849301 -0.00489081 0.00716741)
(-0.00723887 -0.00887433 0.00271475)
(-0.00147635 -0.0156412 -0.00373778)
(-0.000778839 -0.0178976 -0.0073162)
(0.0051662 -0.00939618 -0.000956605)
(0.00547242 -0.00367286 0.00361183)
(0.00648411 0.00134797 0.0064841)
(0.00654282 0.00432156 0.0077024)
(0.00618122 0.00578686 0.00786337)
(0.0056777 0.00626366 0.00741963)
(0.00498127 0.00629734 0.00682783)
(0.00415103 0.00630927 0.00650139)
(0.00286813 0.00640186 0.00652184)
(0.000933391 0.00625311 0.00660202)
(-0.000830801 0.0058827 0.00649923)
(-0.00195066 0.00570548 0.00671995)
(-0.00307759 0.00546434 0.00724217)
(-0.00402616 0.00472807 0.00762593)
(-0.00476676 0.00300576 0.00744537)
(-0.00503806 -0.000370633 0.00606465)
(-0.00455731 -0.00499791 0.0032533)
(-0.00486059 -0.0102997 -0.00150464)
(0.000923635 -0.0183977 -0.00795515)
(-0.0043175 -0.0166195 -0.0118964)
(-0.0011713 -0.0103322 -0.00720991)
(-0.00249675 -0.00595718 -0.00344113)
(-0.0014621 -0.00310888 -0.00146211)
(-8.48427e-05 -0.00111664 -0.000416183)
(0.000729563 -0.000204441 -0.000729199)
(0.00145161 -0.000323271 -0.00143635)
(0.00195872 -0.000792728 -0.00189617)
(0.00230868 -0.000956654 -0.00164665)
(0.00214275 0.000205323 -0.00055419)
(0.00180715 0.000147099 -0.000353626)
(0.0013713 -0.00130163 -0.00153861)
(0.0013969 -0.00136511 -0.00199698)
(0.00148391 -0.00111798 -0.00161427)
(0.00164168 -0.00132401 -0.000858257)
(0.00231108 -0.00226898 -0.00107919)
(0.00270537 -0.00396877 -0.00171234)
(0.00332754 -0.00656305 -0.00376379)
(0.00144942 -0.0107027 -0.00758714)
(0.00442848 -0.0168516 -0.0123669)
(-0.0112573 -0.00968962 -0.0177533)
(-0.0166815 -0.0044193 -0.018565)
(-0.0222569 -0.00148286 -0.0209948)
(-0.0241118 0.000223887 -0.0241118)
(-0.0240993 0.00167294 -0.0273764)
(-0.0226311 0.00287397 -0.0306295)
(-0.0201812 0.00415062 -0.0339494)
(-0.016472 0.00567817 -0.0368965)
(-0.0110638 0.00752866 -0.0386224)
(-0.00515612 0.00975391 -0.03762)
(0.00644623 0.00982123 -0.037616)
(0.0124048 0.00769092 -0.0386635)
(0.0178666 0.00589163 -0.0370359)
(0.0215603 0.00436405 -0.0341477)
(0.0239379 0.00302386 -0.0308748)
(0.0250896 0.00174467 -0.0275184)