/*--------------------------------*- C++ -*----------------------------------*\
| =========                 |                                                 |
| \\      /  F ield         | OpenFOAM: The Open Source CFD Toolbox           |
|  \\    /   O peration     | Version:  1.7.1                                 |
|   \\  /    A nd           | Web:      www.OpenFOAM.com                      |
|    \\/     M anipulation  |                                                 |
\*---------------------------------------------------------------------------*/
FoamFile
{
    version     2.0;
    format      ascii;
    class       volScalarField;
    location    "0.3";
    object      p;
}
// * * * * * * * * * * * * * * * * * * * * * * * * * * * * * * * * * * * * * //

dimensions      [0 2 -2 0 0 0 0];

internalField   nonuniform List<scalar> 
400
(
5.92081e-06
-0.00581912
-0.0129556
-0.0184069
-0.0204238
-0.0182301
-0.0117658
-0.00147626
0.011844
0.0271547
0.0432489
0.0588264
0.0725812
0.0833104
0.0900546
0.0922691
0.0900287
0.0842478
0.0768856
0.0710728
0.00578535
-0.000212899
-0.00579798
-0.00953594
-0.0105919
-0.00842549
-0.00296292
0.0054807
0.0163089
0.028717
0.0417545
0.05439
0.06559
0.0744132
0.0801236
0.0823193
0.0810813
0.0770595
0.0712796
0.0653241
0.0133389
0.00503826
-0.000990151
-0.00441747
-0.00526686
-0.00325763
0.00160863
0.00903362
0.0185077
0.0293545
0.0407703
0.0518741
0.0617727
0.0696405
0.0748112
0.0768825
0.0758465
0.0720913
0.0658117
0.0575426
0.0201422
0.00869994
0.00123053
-0.00266343
-0.00371667
-0.00187959
0.00273711
0.00979034
0.0187859
0.0291003
0.039997
0.0506588
0.0602376
0.0679206
0.0730079
0.0750066
0.0737713
0.0694622
0.0616098
0.0501105
0.024504
0.00977669
0.000594207
-0.00398203
-0.00529704
-0.00350189
0.00118036
0.00834025
0.0174676
0.0279546
0.0390904
0.0500752
0.060054
0.0681701
0.0736316
0.0758032
0.074375
0.0692964
0.059533
0.0445459
0.0251797
0.00715347
-0.00379762
-0.00905228
-0.0105069
-0.00849446
-0.00335109
0.00443528
0.0143193
0.0256849
0.0378196
0.049909
0.0610537
0.0703087
0.0767403
0.0795228
0.0781453
0.0723405
0.0605471
0.0418992
0.0210958
-0.000258674
-0.0129299
-0.0187042
-0.0200242
-0.017408
-0.0113123
-0.00231341
0.00899681
0.0219826
0.035916
0.0499507
0.0631184
0.0743514
0.0825281
0.0865758
0.0857274
0.0794543
0.0656284
0.043081
0.0111461
-0.0136138
-0.02787
-0.0338486
-0.0345975
-0.0308511
-0.0232062
-0.0123383
0.0011119
0.016491
0.0330596
0.0499406
0.0660902
0.0802967
0.0912074
0.0974368
0.0978772
0.0916434
0.0759043
0.0491256
-0.00596236
-0.034261
-0.0498642
-0.0555424
-0.0550835
-0.0495076
-0.0395861
-0.0261057
-0.00974929
0.00883088
0.0289088
0.0496012
0.069805
0.0881619
0.103055
0.112708
0.115558
0.110199
0.0928421
0.0614201
-0.0318506
-0.0638695
-0.0804101
-0.0850002
-0.0824128
-0.0740707
-0.0609729
-0.0440283
-0.023943
-0.00132823
0.0231542
0.0486695
0.0741038
0.0979802
0.118404
0.133133
0.139996
0.136825
0.118448
0.0819417
-0.0686591
-0.104595
-0.121337
-0.123582
-0.117508
-0.105118
-0.0877097
-0.0663166
-0.0416278
-0.0141463
0.0156149
0.0469624
0.0788646
0.109802
0.137632
0.159593
0.172734
0.173785
0.155528
0.113578
-0.119392
-0.159348
-0.174906
-0.172748
-0.161139
-0.14292
-0.11975
-0.0927677
-0.0625678
-0.0294378
0.006383
0.0444832
0.0840645
0.123712
0.161145
0.193094
0.215676
0.224084
0.208057
0.160639
-0.188617
-0.232232
-0.243929
-0.233939
-0.213685
-0.187145
-0.156363
-0.122491
-0.0858879
-0.046462
-0.00400421
0.0415489
0.0898519
0.139839
0.189328
0.234697
0.271082
0.291671
0.281749
0.229781
-0.283962
-0.329294
-0.331822
-0.308271
-0.274699
-0.236431
-0.195755
-0.1536
-0.10983
-0.0637348
-0.0144274
0.0388738
0.0965642
0.158286
0.222383
0.285296
0.341405
0.381582
0.38492
0.331839
-0.419306
-0.45966
-0.442341
-0.395783
-0.34212
-0.287731
-0.234607
-0.18292
-0.131599
-0.0789744
-0.0232033
0.0374858
0.104563
0.178847
0.25987
0.344978
0.428624
0.499707
0.529681
0.485396
-0.620519
-0.636733
-0.578668
-0.494184
-0.411232
-0.33565
-0.267772
-0.205968
-0.147526
-0.0893725
-0.0284153
0.0383589
0.113817
0.200481
0.299984
0.412033
0.533037
0.651782
0.732778
0.7224
-0.935913
-0.878505
-0.741733
-0.597941
-0.474385
-0.372652
-0.28886
-0.217754
-0.153944
-0.0924537
-0.0287067
0.0417062
0.123274
0.220728
0.338935
0.482163
0.652004
0.841349
1.01528
1.09751
-1.47641
-1.20662
-0.920495
-0.691381
-0.517298
-0.387537
-0.290054
-0.213329
-0.148115
-0.0872057
-0.0245673
0.0454679
0.128948
0.233081
0.367112
0.542686
0.771301
1.05932
1.40329
1.73015
-2.53964
-1.63054
-1.04443
-0.710953
-0.495745
-0.352088
-0.254525
-0.183576
-0.126161
-0.0735859
-0.019259
0.0427974
0.119223
0.218793
0.354822
0.547993
0.826401
1.23659
1.91168
2.9242
-4.36666
-2.04463
-0.973537
-0.563176
-0.357842
-0.240143
-0.170115
-0.123777
-0.087474
-0.0535015
-0.0166445
0.0276716
0.0846189
0.161741
0.272422
0.442109
0.718228
1.22572
2.41104
4.84854
)
;

boundaryField
{
    movingWall
    {
        type            zeroGradient;
    }
    fixedWalls
    {
        type            zeroGradient;
    }
    frontAndBack
    {
        type            empty;
    }
}


// ************************************************************************* //
