/*--------------------------------*- C++ -*----------------------------------*\
| =========                 |                                                 |
| \\      /  F ield         | OpenFOAM: The Open Source CFD Toolbox           |
|  \\    /   O peration     | Version:  1.7.1                                 |
|   \\  /    A nd           | Web:      www.OpenFOAM.com                      |
|    \\/     M anipulation  |                                                 |
\*---------------------------------------------------------------------------*/
FoamFile
{
    version     2.0;
    format      ascii;
    class       surfaceScalarField;
    location    "0.3";
    object      phi;
}
// * * * * * * * * * * * * * * * * * * * * * * * * * * * * * * * * * * * * * //

dimensions      [0 3 -1 0 0 0 0];

internalField   nonuniform List<scalar> 
760
(
1.42236e-08
-1.42734e-08
-2.22141e-08
3.64376e-08
-1.14267e-07
9.20533e-08
-2.45482e-07
1.31217e-07
-3.96077e-07
1.50596e-07
-5.47336e-07
1.51258e-07
-6.83152e-07
1.35816e-07
-7.90617e-07
1.07465e-07
-8.60157e-07
6.95397e-08
-8.85588e-07
2.54324e-08
-8.64268e-07
-2.13199e-08
-7.97341e-07
-6.69269e-08
-6.90045e-07
-1.07297e-07
-5.51942e-07
-1.38104e-07
-3.96922e-07
-1.5502e-07
-2.42737e-07
-1.54186e-07
-1.09729e-07
-1.33009e-07
-1.84169e-08
-9.1312e-08
1.56878e-08
-3.41041e-08
1.56884e-08
-3.42173e-08
1.9944e-08
-1.8037e-07
1.82589e-07
-4.33973e-07
3.45655e-07
-7.64402e-07
4.61646e-07
-1.13216e-06
5.18357e-07
-1.49718e-06
5.16273e-07
-1.82325e-06
4.61894e-07
-2.08044e-06
3.6465e-07
-2.24617e-06
2.3527e-07
-2.30593e-06
8.51938e-08
-2.25379e-06
-7.34567e-08
-2.09295e-06
-2.2777e-07
-1.83618e-06
-3.64072e-07
-1.50597e-06
-4.68307e-07
-1.13403e-06
-5.26962e-07
-7.59488e-07
-5.28728e-07
-4.25382e-07
-4.67115e-07
-1.72686e-07
-3.44009e-07
-3.08019e-08
-1.75988e-07
-1.51128e-08
-9.22252e-08
1.1217e-07
-3.56982e-07
4.47346e-07
-7.64525e-07
7.53197e-07
-1.26843e-06
9.65549e-07
-1.81461e-06
1.06454e-06
-2.34893e-06
1.05059e-06
-2.8223e-06
9.35258e-07
-3.19379e-06
7.3614e-07
-3.43244e-06
4.73925e-07
-3.51834e-06
1.71093e-07
-3.44341e-06
-1.48392e-07
-3.2121e-06
-4.59074e-07
-2.84197e-06
-7.34204e-07
-2.36369e-06
-9.46585e-07
-1.82023e-06
-1.07042e-06
-1.26443e-06
-1.08453e-06
-7.54488e-07
-9.77055e-07
-3.46955e-07
-7.51543e-07
-8.73327e-08
-4.35612e-07
-1.02445e-07
-1.45205e-07
2.57375e-07
-5.25437e-07
8.2758e-07
-1.08158e-06
1.30934e-06
-1.74743e-06
1.63139e-06
-2.45421e-06
1.77132e-06
-3.13622e-06
1.7326e-06
-3.73511e-06
1.53414e-06
-4.2027e-06
1.20373e-06
-4.5027e-06
7.73922e-07
-4.6117e-06
2.80097e-07
-4.52004e-06
-2.40056e-07
-4.23253e-06
-7.46582e-07
-3.76919e-06
-1.19755e-06
-3.16549e-06
-1.55028e-06
-2.47176e-06
-1.76415e-06
-1.75099e-06
-1.8053e-06
-1.07446e-06
-1.65358e-06
-5.15115e-07
-1.31089e-06
-1.39309e-07
-8.11418e-07
-2.41754e-07
-1.93602e-07
4.50975e-07
-6.84969e-07
1.31895e-06
-1.38556e-06
2.00993e-06
-2.20714e-06
2.45297e-06
-3.06532e-06
2.62951e-06
-3.88359e-06
2.55087e-06
-4.59628e-06
2.24683e-06
-5.15034e-06
1.75779e-06
-5.50618e-06
1.12977e-06
-5.63826e-06
4.12168e-07
-5.53549e-06
-3.42818e-07
-5.20213e-06
-1.07995e-06
-4.65867e-06
-1.74101e-06
-3.94278e-06
-2.26617e-06
-3.10956e-06
-2.59736e-06
-2.2304e-06
-2.68447e-06
-1.38958e-06
-2.4944e-06
-6.78469e-07
-2.022e-06
-1.87759e-07
-1.30213e-06
-4.29513e-07
-2.39932e-07
6.90905e-07
-8.40316e-07
1.91933e-06
-1.68322e-06
2.85283e-06
-2.65695e-06
3.4267e-06
-3.66069e-06
3.63325e-06
-4.60758e-06
3.49777e-06
-5.42613e-06
3.06538e-06
-6.06032e-06
2.39198e-06
-6.46909e-06
1.53854e-06
-6.62579e-06
5.68861e-07
-6.51806e-06
-4.50542e-07
-6.14856e-06
-1.44945e-06
-5.53633e-06
-2.35324e-06
-4.71874e-06
-3.08376e-06
-3.75332e-06
-3.56279e-06
-2.71838e-06
-3.71941e-06
-1.71148e-06
-3.50131e-06
-8.44631e-07
-2.88884e-06
-2.36171e-07
-1.91059e-06
-6.65683e-07
-2.86736e-07
9.7764e-07
-9.97056e-07
2.62965e-06
-1.98202e-06
3.8378e-06
-3.10485e-06
4.54953e-06
-4.24782e-06
4.77622e-06
-5.31465e-06
4.5646e-06
-6.22992e-06
3.98065e-06
-6.93696e-06
3.09901e-06
-7.39526e-06
1.99684e-06
-7.57839e-06
7.51993e-07
-7.47294e-06
-5.55997e-07
-7.0789e-06
-1.84348e-06
-6.4117e-06
-3.02045e-06
-5.50543e-06
-3.99003e-06
-4.41694e-06
-4.65128e-06
-3.22928e-06
-4.90706e-06
-2.0529e-06
-4.67769e-06
-1.02251e-06
-3.91923e-06
-2.88274e-07
-2.64482e-06
-9.53956e-07
-3.36324e-07
1.31396e-06
-1.16035e-06
3.45367e-06
-2.28797e-06
4.96542e-06
-3.55492e-06
5.81648e-06
-4.82652e-06
6.04782e-06
-5.99894e-06
5.73701e-06
-6.99588e-06
4.9776e-06
-7.76335e-06
3.86648e-06
-8.26431e-06
2.4978e-06
-8.47443e-06
9.62119e-07
-8.37979e-06
-6.50643e-07
-7.97673e-06
-2.24653e-06
-7.27443e-06
-3.72275e-06
-6.29983e-06
-4.96462e-06
-5.10458e-06
-5.84653e-06
-3.77246e-06
-6.23918e-06
-2.42484e-06
-6.02531e-06
-1.22073e-06
-5.12335e-06
-3.47702e-07
-3.51785e-06
-1.30166e-06
-3.90953e-07
1.70492e-06
-1.33487e-06
4.39759e-06
-2.60495e-06
6.2355e-06
-4.0059e-06
7.21744e-06
-5.38675e-06
7.42867e-06
-6.63967e-06
6.98993e-06
-7.69234e-06
6.03027e-06
-8.49836e-06
4.67251e-06
-9.0283e-06
3.02774e-06
-9.26281e-06
1.19662e-06
-9.18854e-06
-7.24912e-07
-8.79738e-06
-2.63769e-06
-8.08927e-06
-4.43085e-06
-7.07894e-06
-5.97495e-06
-5.80626e-06
-7.11921e-06
-4.349e-06
-7.69644e-06
-2.83479e-06
-7.53953e-06
-1.44708e-06
-6.51105e-06
-4.18095e-07
-4.54683e-06
-1.71975e-06
-4.53452e-07
2.15837e-06
-1.52568e-06
5.46982e-06
-2.93488e-06
7.6447e-06
-4.45011e-06
8.73267e-06
-5.90631e-06
8.88488e-06
-7.1978e-06
8.28142e-06
-8.26364e-06
7.09611e-06
-9.07205e-06
5.48091e-06
-9.60685e-06
3.56254e-06
-9.85758e-06
1.44735e-06
-9.81341e-06
-7.69083e-07
-9.46136e-06
-2.98973e-06
-8.78909e-06
-5.10312e-06
-7.79299e-06
-6.97106e-06
-6.4922e-06
-8.42e-06
-4.94796e-06
-9.24068e-06
-3.2851e-06
-9.20238e-06
-1.70867e-06
-8.08748e-06
-5.03586e-07
-5.75192e-06
-2.22334e-06
-5.28337e-07
2.68671e-06
-1.73967e-06
6.68115e-06
-3.27799e-06
9.18302e-06
-4.87164e-06
1.03263e-05
-6.34704e-06
1.03603e-05
-7.61085e-06
9.54524e-06
-8.62439e-06
8.10965e-06
-9.37972e-06
6.23624e-06
-9.88103e-06
4.06385e-06
-1.01316e-05
1.69789e-06
-1.01258e-05
-7.74834e-07
-9.84637e-06
-3.26918e-06
-9.26602e-06
-5.68347e-06
-8.35635e-06
-7.88072e-06
-7.10471e-06
-9.67164e-06
-5.54071e-06
-1.08047e-05
-3.77071e-06
-1.09724e-05
-2.01217e-06
-9.84602e-06
-6.09688e-07
-7.1544e-06
-2.83303e-06
-6.2367e-07
3.31038e-06
-1.9874e-06
8.04488e-06
-3.63194e-06
1.08276e-05
-5.24197e-06
1.19364e-05
-6.64764e-06
1.17659e-05
-7.78456e-06
1.06822e-05
-8.65111e-06
8.9762e-06
-9.27441e-06
6.85955e-06
-9.68665e-06
4.47609e-06
-9.90993e-06
1.92117e-06
-9.94734e-06
-7.3742e-07
-9.77869e-06
-3.43784e-06
-9.36098e-06
-6.10118e-06
-8.63569e-06
-8.60601e-06
-7.54644e-06
-1.07609e-05
-6.07162e-06
-1.22795e-05
-4.27429e-06
-1.27697e-05
-2.36366e-06
-1.17567e-05
-7.44779e-07
-8.77328e-06
-3.5778e-06
-7.54083e-07
4.06446e-06
-2.28437e-06
9.57517e-06
-3.98706e-06
1.25302e-05
-5.50917e-06
1.34585e-05
-6.70971e-06
1.29665e-05
-7.57869e-06
1.15511e-05
-8.17021e-06
9.56772e-06
-8.5578e-06
7.24714e-06
-8.80791e-06
4.7262e-06
-8.96524e-06
2.0785e-06
-9.04455e-06
-6.58108e-07
-9.02592e-06
-3.45647e-06
-8.85275e-06
-6.27436e-06
-8.43495e-06
-9.02381e-06
-7.663e-06
-1.15328e-05
-6.44207e-06
-1.35004e-05
-4.7563e-06
-1.44555e-05
-2.76677e-06
-1.37462e-05
-9.22439e-07
-1.06176e-05
-4.50024e-06
-9.45214e-07
5.00968e-06
-2.64852e-06
1.12785e-05
-4.31104e-06
1.41928e-05
-5.57338e-06
1.47208e-05
-6.3708e-06
1.37639e-05
-6.78342e-06
1.19638e-05
-6.94066e-06
9.72496e-06
-6.9699e-06
7.27639e-06
-6.97296e-06
4.72926e-06
-7.01668e-06
2.12222e-06
-7.12877e-06
-5.46012e-07
-7.29392e-06
-3.29133e-06
-7.44878e-06
-6.11949e-06
-7.478e-06
-8.99458e-06
-7.21803e-06
-1.17928e-05
-6.48282e-06
-1.42356e-05
-5.13347e-06
-1.58048e-05
-3.215e-06
-1.56647e-05
-1.16439e-06
-1.26682e-05
-5.66464e-06
-1.23732e-06
6.247e-06
-3.08332e-06
1.31245e-05
-4.50776e-06
1.56172e-05
-5.23456e-06
1.54476e-05
-5.35533e-06
1.38847e-05
-5.08197e-06
1.16904e-05
-4.63105e-06
9.27405e-06
-4.17943e-06
6.82477e-06
-3.85454e-06
4.40436e-06
-3.7372e-06
2.00488e-06
-3.8653e-06
-4.17912e-07
-4.2328e-06
-2.92383e-06
-4.78223e-06
-5.57007e-06
-5.39119e-06
-8.38562e-06
-5.85859e-06
-1.13254e-05
-5.90664e-06
-1.41876e-05
-5.23286e-06
-1.64786e-05
-3.66629e-06
-1.72312e-05
-1.50008e-06
-1.48344e-05
-7.16472e-06
-1.67381e-06
7.92081e-06
-3.51339e-06
1.4964e-05
-4.31535e-06
1.64192e-05
-4.08895e-06
1.52212e-05
-3.19315e-06
1.29889e-05
-1.99887e-06
1.04961e-05
-7.95301e-07
8.07048e-06
2.1916e-07
5.8103e-06
9.18044e-07
3.70548e-06
1.22541e-06
1.69752e-06
1.10188e-06
-2.94375e-07
5.40886e-07
-2.36284e-06
-4.23084e-07
-4.6061e-06
-1.6927e-06
-7.116e-06
-3.07251e-06
-9.9456e-06
-4.23089e-06
-1.30292e-05
-4.69569e-06
-1.60138e-05
-3.9672e-06
-1.79597e-05
-1.94493e-06
-1.68567e-05
-9.10965e-06
-2.23069e-06
1.01515e-05
-3.59031e-06
1.63237e-05
-3.07782e-06
1.59067e-05
-1.34394e-06
1.34873e-05
8.96941e-07
1.0748e-05
3.15485e-06
8.23822e-06
5.13797e-06
6.08735e-06
6.68853e-06
4.25975e-06
7.72565e-06
2.66835e-06
8.20637e-06
1.2168e-06
8.10371e-06
-1.91714e-07
7.39887e-06
-1.658e-06
6.08671e-06
-3.29394e-06
4.19906e-06
-5.22835e-06
1.85405e-06
-7.60059e-06
-6.61787e-07
-1.05134e-05
-2.79222e-06
-1.38834e-05
-3.66211e-06
-1.70898e-05
-2.41155e-06
-1.81073e-05
-1.15212e-05
-2.57382e-06
1.27253e-05
-2.18347e-06
1.59333e-05
7.18041e-07
1.30052e-05
4.46952e-06
9.73586e-06
8.13321e-06
7.08428e-06
1.13015e-05
5.06996e-06
1.3829e-05
3.55986e-06
1.56879e-05
2.40076e-06
1.68915e-05
1.46479e-06
1.74547e-05
6.53598e-07
1.73762e-05
-1.13198e-07
1.66303e-05
-9.12142e-07
1.5167e-05
-1.83064e-06
1.29234e-05
-2.98471e-06
9.86166e-06
-4.53885e-06
6.0619e-06
-6.71361e-06
1.9123e-06
-9.73377e-06
-1.55964e-06
-1.36179e-05
-2.45834e-06
-1.72086e-05
-1.39795e-05
-7.85013e-07
1.35103e-05
4.08079e-06
1.10675e-05
1.02975e-05
6.78842e-06
1.57936e-05
4.23979e-06
2.0158e-05
2.7199e-06
2.3458e-05
1.76994e-06
2.58607e-05
1.15713e-06
2.75214e-05
7.40047e-07
2.85539e-05
4.3229e-07
2.90263e-05
1.8122e-07
2.89621e-05
-4.89805e-08
2.83387e-05
-2.88696e-07
2.70818e-05
-5.73735e-07
2.5055e-05
-9.57949e-07
2.20517e-05
-1.53552e-06
1.78155e-05
-2.47741e-06
1.21724e-05
-4.09067e-06
5.47771e-06
-6.92324e-06
-1.29173e-07
-1.16017e-05
-1.41087e-05
1.35103e-05
2.45779e-05
3.13663e-05
3.56061e-05
3.8326e-05
4.00959e-05
4.1253e-05
4.19931e-05
4.24254e-05
4.26066e-05
4.25576e-05
4.22689e-05
4.16952e-05
4.07372e-05
3.92017e-05
3.67243e-05
3.26336e-05
2.57104e-05
1.41087e-05
)
;

boundaryField
{
    movingWall
    {
        type            calculated;
        value           uniform 0;
    }
    fixedWalls
    {
        type            calculated;
        value           uniform 0;
    }
    frontAndBack
    {
        type            empty;
    }
}


// ************************************************************************* //
