/*--------------------------------*- C++ -*----------------------------------*\
| =========                 |                                                 |
| \\      /  F ield         | OpenFOAM: The Open Source CFD Toolbox           |
|  \\    /   O peration     | Version:  1.7.1                                 |
|   \\  /    A nd           | Web:      www.OpenFOAM.com                      |
|    \\/     M anipulation  |                                                 |
\*---------------------------------------------------------------------------*/
FoamFile
{
    version     2.0;
    format      ascii;
    class       volVectorField;
    location    "0.3";
    object      U;
}
// * * * * * * * * * * * * * * * * * * * * * * * * * * * * * * * * * * * * * //

dimensions      [0 1 -1 0 0 0 0];

internalField   nonuniform List<vector> 
400
(
(0.000253299 -0.000250496 0)
(0.000141058 0.000111379 0)
(-0.001177 0.000564556 0)
(-0.00348096 0.000884924 0)
(-0.00637714 0.00104563 0)
(-0.00946893 0.00106167 0)
(-0.0124022 0.000957775 0)
(-0.0148841 0.000760384 0)
(-0.0166886 0.000494615 0)
(-0.0176573 0.000184555 0)
(-0.0177012 -0.000145253 0)
(-0.0168042 -0.000468335 0)
(-0.0150293 -0.00075537 0)
(-0.0125245 -0.00097421 0)
(-0.00952593 -0.00109113 0)
(-0.00635469 -0.00107395 0)
(-0.0034005 -0.000898075 0)
(-0.00108641 -0.00055636 0)
(0.000196393 -9.03619e-05 0)
(0.000267839 0.00026237 0)
(-7.75092e-05 -0.000169476 0)
(-0.00161157 0.00164466 0)
(-0.00569271 0.00361708 0)
(-0.0117184 0.00503455 0)
(-0.0188915 0.00574293 0)
(-0.0263996 0.0057599 0)
(-0.0334677 0.0051714 0)
(-0.0394251 0.0040923 0)
(-0.0437421 0.00264751 0)
(-0.0460452 0.000966898 0)
(-0.0461276 -0.000813162 0)
(-0.0439596 -0.00254694 0)
(-0.0396996 -0.00407844 0)
(-0.0337014 -0.00524486 0)
(-0.0265124 -0.00588631 0)
(-0.0188539 -0.00586461 0)
(-0.0115662 -0.00509455 0)
(-0.00551311 -0.00358928 0)
(-0.00149305 -0.00155908 0)
(-4.25882e-05 0.000227443 0)
(-0.000528602 0.00109152 0)
(-0.00371128 0.00573596 0)
(-0.0105886 0.0102239 0)
(-0.019991 0.013407 0)
(-0.0307637 0.0149456 0)
(-0.0418207 0.0148381 0)
(-0.052118 0.0132551 0)
(-0.0607421 0.0104557 0)
(-0.0669671 0.0067417 0)
(-0.0702803 0.00243878 0)
(-0.0703983 -0.00210641 0)
(-0.0672821 -0.00652514 0)
(-0.0611504 -0.0104287 0)
(-0.0524868 -0.0134205 0)
(-0.0420357 -0.0151229 0)
(-0.030773 -0.015225 0)
(-0.0198284 -0.0135555 0)
(-0.0103632 -0.0101785 0)
(-0.00354841 -0.00555088 0)
(-0.000476835 -0.000948805 0)
(-0.0009282 0.00347967 0)
(-0.00569132 0.0122201 0)
(-0.0153013 0.0199208 0)
(-0.027916 0.0251967 0)
(-0.0419842 0.0275958 0)
(-0.0561774 0.0271363 0)
(-0.06925 0.0241079 0)
(-0.0801233 0.018953 0)
(-0.0879456 0.012195 0)
(-0.0921162 0.00440492 0)
(-0.0923008 -0.00380777 0)
(-0.0884477 -0.011796 0)
(-0.0808027 -0.0188813 0)
(-0.069921 -0.0243752 0)
(-0.0566677 -0.0276265 0)
(-0.0421937 -0.0281006 0)
(-0.0278558 -0.0254967 0)
(-0.0150932 -0.0198909 0)
(-0.00550488 -0.0119273 0)
(-0.000861575 -0.00322476 0)
(-0.0012789 0.00687751 0)
(-0.00753584 0.0209528 0)
(-0.0198043 0.032509 0)
(-0.035534 0.0401015 0)
(-0.0527421 0.0432884 0)
(-0.0698568 0.042191 0)
(-0.0854613 0.0372759 0)
(-0.0983582 0.0292118 0)
(-0.107617 0.0187764 0)
(-0.112586 0.00681348 0)
(-0.112895 -0.00578007 0)
(-0.108472 -0.0180539 0)
(-0.0995599 -0.0290101 0)
(-0.0867372 -0.0376311 0)
(-0.0709341 -0.0429432 0)
(-0.0534291 -0.044127 0)
(-0.0357838 -0.0406771 0)
(-0.0197347 -0.0325912 0)
(-0.0073704 -0.0205898 0)
(-0.00120364 -0.00649791 0)
(-0.00160749 0.0112151 0)
(-0.00931781 0.0318732 0)
(-0.0242087 0.0479497 0)
(-0.0430016 0.0580694 0)
(-0.0632555 0.0619343 0)
(-0.0831509 0.0598784 0)
(-0.101122 0.0526259 0)
(-0.115889 0.0411239 0)
(-0.126485 0.0264359 0)
(-0.132234 0.00969253 0)
(-0.132746 -0.00791585 0)
(-0.12792 -0.0251308 0)
(-0.117963 -0.040623 0)
(-0.103431 -0.0530168 0)
(-0.0852669 -0.0609634 0)
(-0.064834 -0.0632772 0)
(-0.0438844 -0.0591394 0)
(-0.0244771 -0.0483423 0)
(-0.00925407 -0.0315563 0)
(-0.00153771 -0.0107281 0)
(-0.00194 0.0164763 0)
(-0.011121 0.0449722 0)
(-0.0286497 0.0662303 0)
(-0.0504786 0.0790557 0)
(-0.0736831 0.0834423 0)
(-0.0962013 0.0800703 0)
(-0.116349 0.070021 0)
(-0.132811 0.0545822 0)
(-0.144627 0.0351301 0)
(-0.151137 0.0130842 0)
(-0.151945 -0.0100858 0)
(-0.146912 -0.0328308 0)
(-0.136178 -0.0534969 0)
(-0.12022 -0.0703334 0)
(-0.0999301 -0.0815614 0)
(-0.0766995 -0.0855287 0)
(-0.0524389 -0.0809601 0)
(-0.0295441 -0.0672741 0)
(-0.0112833 -0.0449377 0)
(-0.00190003 -0.0159509 0)
(-0.00229998 0.0226939 0)
(-0.0130247 0.0602981 0)
(-0.0332501 0.0873596 0)
(-0.0580784 0.102992 0)
(-0.0840726 0.10766 0)
(-0.108951 0.102556 0)
(-0.130964 0.0892398 0)
(-0.148831 0.0694075 0)
(-0.161662 0.0447696 0)
(-0.168864 0.0170192 0)
(-0.170059 -0.0121327 0)
(-0.165067 -0.0408909 0)
(-0.153926 -0.0673108 0)
(-0.136967 -0.0892688 0)
(-0.11494 -0.104507 0)
(-0.0891739 -0.110791 0)
(-0.0616693 -0.106208 0)
(-0.0351476 -0.0895757 0)
(-0.0135855 -0.060947 0)
(-0.00232628 -0.0222767 0)
(-0.00271159 0.0299457 0)
(-0.0151077 0.0779531 0)
(-0.0381141 0.111351 0)
(-0.0658472 0.129744 0)
(-0.0943251 0.134311 0)
(-0.121097 0.126968 0)
(-0.144441 0.109897 0)
(-0.16321 0.0852777 0)
(-0.176684 0.0551646 0)
(-0.184403 0.0214862 0)
(-0.186054 -0.0138737 0)
(-0.181418 -0.0489539 0)
(-0.170392 -0.0815892 0)
(-0.153078 -0.109318 0)
(-0.129969 -0.129375 0)
(-0.102184 -0.138822 0)
(-0.0716883 -0.134881 0)
(-0.0414663 -0.115465 0)
(-0.0162878 -0.0798923 0)
(-0.00285465 -0.0298885 0)
(-0.00320763 0.038358 0)
(-0.0174661 0.0980854 0)
(-0.0433407 0.138183 0)
(-0.0737561 0.159039 0)
(-0.104159 0.162894 0)
(-0.132031 0.152666 0)
(-0.155824 0.131335 0)
(-0.174677 0.101636 0)
(-0.188166 0.0659549 0)
(-0.196066 0.0263887 0)
(-0.198185 -0.0151115 0)
(-0.194282 -0.0565423 0)
(-0.18408 -0.0956373 0)
(-0.167365 -0.129683 0)
(-0.144214 -0.155417 0)
(-0.115338 -0.169091 0)
(-0.0824452 -0.166796 0)
(-0.0486357 -0.145119 0)
(-0.0195286 -0.102156 0)
(-0.00353354 -0.0390459 0)
(-0.00384397 0.048127 0)
(-0.0202463 0.120889 0)
(-0.0490468 0.167746 0)
(-0.0816868 0.190359 0)
(-0.113054 0.19255 0)
(-0.140747 0.178608 0)
(-0.163623 0.152506 0)
(-0.18131 0.117588 0)
(-0.193847 0.0765321 0)
(-0.201362 0.0314935 0)
(-0.203858 -0.0156576 0)
(-0.20111 -0.0630473 0)
(-0.192649 -0.108486 0)
(-0.177857 -0.149165 0)
(-0.156224 -0.181408 0)
(-0.12778 -0.200599 0)
(-0.0936443 -0.201418 0)
(-0.0567331 -0.178568 0)
(-0.0234798 -0.128169 0)
(-0.00443553 -0.050103 0)
(-0.00472542 0.0595696 0)
(-0.023695 0.146613 0)
(-0.0553837 0.19975 0)
(-0.0893776 0.222784 0)
(-0.120124 0.221885 0)
(-0.145678 0.203181 0)
(-0.165633 0.171834 0)
(-0.180374 0.131806 0)
(-0.190584 0.0859672 0)
(-0.196867 0.0363757 0)
(-0.199505 -0.0153694 0)
(-0.198339 -0.0677399 0)
(-0.19272 -0.118862 0)
(-0.181576 -0.166072 0)
(-0.163647 -0.205481 0)
(-0.137968 -0.231654 0)
(-0.104597 -0.237619 0)
(-0.0657339 -0.21552 0)
(-0.0283778 -0.158364 0)
(-0.0056821 -0.0635508 0)
(-0.00605166 0.0732269 0)
(-0.0282263 0.17556 0)
(-0.0625098 0.233565 0)
(-0.0962588 0.25474 0)
(-0.123859 0.248725 0)
(-0.144401 0.22402 0)
(-0.158674 0.187102 0)
(-0.168112 0.142458 0)
(-0.174206 0.0929664 0)
(-0.178124 0.0403784 0)
(-0.18049 -0.0141974 0)
(-0.18127 -0.0698184 0)
(-0.1797 -0.125206 0)
(-0.174274 -0.178175 0)
(-0.162898 -0.224967 0)
(-0.143318 -0.259582 0)
(-0.113939 -0.273323 0)
(-0.0753938 -0.255061 0)
(-0.0345565 -0.193087 0)
(-0.00748632 -0.0801029 0)
(-0.00819216 0.0900452 0)
(-0.0344832 0.208017 0)
(-0.0704135 0.267879 0)
(-0.101025 0.283601 0)
(-0.121577 0.269805 0)
(-0.133111 0.237835 0)
(-0.138167 0.1954 0)
(-0.139468 0.147229 0)
(-0.139373 0.095907 0)
(-0.139601 0.0426189 0)
(-0.141115 -0.0122321 0)
(-0.144061 -0.0685048 0)
(-0.147674 -0.12579 0)
(-0.150174 -0.182765 0)
(-0.148724 -0.236319 0)
(-0.139646 -0.280441 0)
(-0.119096 -0.30502 0)
(-0.0849369 -0.295154 0)
(-0.0424408 -0.232374 0)
(-0.0102161 -0.100836 0)
(-0.0117676 0.111635 0)
(-0.0432602 0.243959 0)
(-0.0782985 0.300031 0)
(-0.10063 0.305088 0)
(-0.108354 0.280456 0)
(-0.105734 0.240378 0)
(-0.0975336 0.193277 0)
(-0.0877756 0.143546 0)
(-0.0795061 0.0930339 0)
(-0.0747907 0.0420944 0)
(-0.0748083 -0.00972814 0)
(-0.0798958 -0.0632093 0)
(-0.0894675 -0.118987 0)
(-0.101792 -0.176953 0)
(-0.113689 -0.235281 0)
(-0.120307 -0.288877 0)
(-0.115265 -0.327192 0)
(-0.0922674 -0.331791 0)
(-0.052316 -0.275401 0)
(-0.0144304 -0.127346 0)
(-0.0175494 0.140658 0)
(-0.054765 0.282144 0)
(-0.0827872 0.324716 0)
(-0.0880821 0.31247 0)
(-0.075111 0.274453 0)
(-0.0525942 0.226767 0)
(-0.0274624 0.177285 0)
(-0.00451908 0.129133 0)
(0.0130939 0.0829113 0)
(0.0234348 0.0379464 0)
(0.0253934 -0.00707307 0)
(0.0185026 -0.0537572 0)
(0.00297539 -0.10375 0)
(-0.0200007 -0.158317 0)
(-0.047689 -0.217499 0)
(-0.0749871 -0.278357 0)
(-0.0935482 -0.331788 0)
(-0.0920646 -0.35768 0)
(-0.0632809 -0.319292 0)
(-0.0206337 -0.161973 0)
(-0.0254498 0.181711 0)
(-0.0657749 0.31777 0)
(-0.0733338 0.331361 0)
(-0.0480784 0.295399 0)
(-0.00558032 0.244209 0)
(0.0412157 0.192378 0)
(0.0846496 0.145045 0)
(0.120532 0.10297 0)
(0.146698 0.0651368 0)
(0.162043 0.029891 0)
(0.165937 -0.00467132 0)
(0.157931 -0.0406276 0)
(0.137728 -0.0802452 0)
(0.105436 -0.125916 0)
(0.0622592 -0.179724 0)
(0.0118035 -0.242018 0)
(-0.0378315 -0.307876 0)
(-0.0716803 -0.360141 0)
(-0.0700559 -0.356607 0)
(-0.0279123 -0.208375 0)
(-0.029649 0.239176 0)
(-0.0608415 0.335767 0)
(-0.0219429 0.300502 0)
(0.0505409 0.240126 0)
(0.127571 0.182948 0)
(0.197005 0.135388 0)
(0.254334 0.0973979 0)
(0.298247 0.0668502 0)
(0.328821 0.0413548 0)
(0.346463 0.0187784 0)
(0.351372 -0.00279403 0)
(0.343298 -0.0252647 0)
(0.321465 -0.050787 0)
(0.284639 -0.0820471 0)
(0.231569 -0.122445 0)
(0.162179 -0.175668 0)
(0.0798992 -0.24343 0)
(-0.00319067 -0.319135 0)
(-0.0546699 -0.368612 0)
(-0.0284594 -0.267618 0)
(0.00808312 0.281861 0)
(0.019783 0.294972 0)
(0.139066 0.210972 0)
(0.264459 0.143477 0)
(0.364366 0.0971855 0)
(0.440362 0.065777 0)
(0.496741 0.044237 0)
(0.536871 0.0288856 0)
(0.563443 0.0171986 0)
(0.578302 0.0074847 0)
(0.582377 -0.00149406 0)
(0.575692 -0.010845 0)
(0.557306 -0.0218468 0)
(0.525132 -0.0363346 0)
(0.475775 -0.0572591 0)
(0.404536 -0.0893836 0)
(0.305175 -0.139741 0)
(0.173416 -0.216386 0)
(0.0411718 -0.311655 0)
(0.0184302 -0.299995 0)
(0.299604 0.146091 0)
(0.396272 0.127503 0)
(0.55742 0.0760895 0)
(0.674487 0.0437232 0)
(0.743888 0.025572 0)
(0.787153 0.0152421 0)
(0.815484 0.00921225 0)
(0.833954 0.00550935 0)
(0.845384 0.00302714 0)
(0.85137 0.00114934 0)
(0.852665 -0.000499366 0)
(0.849381 -0.00221503 0)
(0.840998 -0.0043385 0)
(0.826139 -0.007424 0)
(0.802077 -0.0125322 0)
(0.76362 -0.0217728 0)
(0.699108 -0.0392829 0)
(0.583952 -0.0726601 0)
(0.415827 -0.127868 0)
(0.308819 -0.149468 0)
)
;

boundaryField
{
    movingWall
    {
        type            fixedValue;
        value           uniform (1 0 0);
    }
    fixedWalls
    {
        type            fixedValue;
        value           uniform (0 0 0);
    }
    frontAndBack
    {
        type            empty;
    }
}


// ************************************************************************* //
