/*--------------------------------*- C++ -*----------------------------------*\
| =========                 |                                                 |
| \\      /  F ield         | OpenFOAM: The Open Source CFD Toolbox           |
|  \\    /   O peration     | Version:  1.7.1                                 |
|   \\  /    A nd           | Web:      www.OpenFOAM.com                      |
|    \\/     M anipulation  |                                                 |
\*---------------------------------------------------------------------------*/
FoamFile
{
    version     2.0;
    format      ascii;
    class       surfaceScalarField;
    location    "800";
    object      phi;
}
// * * * * * * * * * * * * * * * * * * * * * * * * * * * * * * * * * * * * * //

dimensions      [1 0 -1 0 0 0 0];

internalField   nonuniform List<scalar> 
11200
(
5.52273e-05
-0.000110466
5.52236e-05
0.000111598
-0.000210633
0.000154253
0.000176063
-0.000326428
0.000261965
0.000257103
-0.000445206
0.000364179
0.000366672
-0.000570719
0.000461176
0.000486793
-0.000667761
0.000547677
0.000605267
-0.000738317
0.000619888
0.000719619
-0.000790064
0.000675763
0.000863929
-0.000856364
0.000712112
0.000943824
-0.000813722
0.000733877
0.000742434
-0.000548807
0.000750207
0.000114266
-0.000150475
0.000778603
-0.000328603
-0.000341025
0.000783886
-0.000518363
-0.000546476
0.000736258
-0.000499265
-0.000695224
0.000676161
-0.000341529
-0.00077372
0.000616024
-0.000158198
-0.000741973
0.000558677
-4.74654e-05
-0.000621579
0.000510868
-1.04615e-05
-0.000513637
0.000476643
-0.000506888
0.000496432
-1.55805e-05
-7.92928e-05
-1.55853e-05
-0.000365306
0.000163178
-2.41057e-05
-0.000845335
0.000170928
-1.73482e-05
-0.0012087
-8.73852e-05
5.53707e-06
-0.00137988
-0.000450994
5.14683e-05
-0.00141638
-0.000710577
7.93353e-05
-0.00132657
-0.000932357
0.000104258
-0.00126798
-0.00101346
0.000164832
-0.00128
-0.00109793
0.00025361
-0.00119457
-0.00120722
0.000308113
-0.000801628
-0.00126559
0.000323902
-0.000162516
-0.00112226
0.000332732
0.000231742
-0.00100977
0.000274531
0.00047557
-0.000977763
0.000187496
0.000725999
-0.00105823
0.000112622
0.000959098
-0.00107222
6.54447e-05
0.00104789
-0.000872156
4.1435e-05
0.000959004
-0.000563758
3.10908e-05
0.000645083
-0.000200557
8.4834e-07
0.000108688
2.94944e-05
0.00111779
-0.00231475
0.0011178
0.00124994
-0.000886424
0.000917523
0.000575195
0.000209738
0.00063594
-0.000553192
0.00070498
0.000336005
-0.00156622
0.000511521
5.04797e-05
-0.00207114
-0.000109135
-9.65412e-05
-0.00206751
-0.000764369
-0.00017161
-0.00196545
-0.000956262
-0.000159254
-0.00178057
-0.00120639
-7.63844e-05
-0.00144075
-0.00156088
1.38939e-05
-0.000916487
-0.0018446
5.48269e-05
-0.000228743
-0.00185502
4.51122e-05
0.000414697
-0.00165706
3.92817e-06
0.000922668
-0.00144015
-4.55165e-05
0.00122716
-0.00130089
-6.17757e-05
0.00127441
-0.0010941
-2.53045e-05
0.000951855
-0.000596792
4.72353e-05
0.000365868
-0.000179839
0.000202079
-3.58087e-05
-0.000217671
0.000418812
-0.000579632
0.000652569
0.00176026
-0.00583525
0.00176026
0.00275535
-0.00365518
0.00177371
0.00295273
-0.00157061
0.001583
0.00239533
-8.0081e-06
0.00127035
0.0010968
0.000885373
0.000924665
-0.000390402
0.000914061
0.00046401
-0.00140063
0.000352282
-0.000106446
-0.00162807
-0.000436204
-0.000292604
-0.00138806
-0.00118319
-0.000263169
-0.00104462
-0.00173481
-0.000169418
-0.00061668
-0.00216691
-0.000105509
-0.000130481
-0.00227099
-7.00903e-05
0.000288504
-0.00207941
3.50453e-06
0.000436101
-0.00169713
0.000109505
5.02995e-05
-0.00117675
0.000261765
-0.000887295
-0.000677949
0.000521534
-0.00185224
-0.000511364
0.000879615
-0.00220689
-0.00108302
0.00125793
-0.00163703
-0.00238487
0.00159742
-0.00401664
0.00180003
0.00127681
-0.00838885
0.00127681
0.00206131
-0.00607507
0.00163541
0.00252661
-0.00384688
0.00181098
0.00270342
-0.00203128
0.00184646
0.002591
-0.000728539
0.00172629
0.00207442
-3.75496e-05
0.00146812
0.00113546
0.000178441
0.00111278
0.000296809
-0.000256143
0.000658622
-0.000140462
-0.0010371
0.000291274
-0.000276005
-0.00178922
0.00019009
-0.000243543
-0.00240813
0.000208935
-0.000243984
-0.00257638
0.000306017
-0.000493979
-0.00237562
0.000546375
-0.00111693
-0.00196167
0.000887639
-0.00202381
-0.00149744
0.00122767
-0.00279592
-0.00144506
0.00153928
-0.00299563
-0.00207978
0.00176817
-0.0025413
-0.00338316
0.00184583
-0.00153396
-0.00513924
0.00174705
-0.00701489
0.00146431
0.000691963
-0.00977273
0.000691949
0.000780156
-0.00749035
0.00132711
0.000657036
-0.00542292
0.00169919
0.000590677
-0.00389404
0.00192913
0.00066486
-0.00286336
0.00206064
0.000852441
-0.00226628
0.00204115
0.00108094
-0.0019745
0.00192444
0.00108549
-0.00199419
0.00173351
0.000885935
-0.00234423
0.00150674
0.0005523
-0.00281141
0.00135594
0.000175388
-0.00330341
0.00127235
-0.000170036
-0.00350172
0.00127092
-0.000543828
-0.00343429
0.00143259
-0.000953877
-0.00324624
0.0016947
-0.00129026
-0.00310316
0.00194214
-0.00146821
-0.00330491
0.00203783
-0.00151039
-0.00398704
0.00194945
-0.00139871
-0.00522282
0.00172799
-0.000973395
-0.00690881
0.00134426
-0.00869061
0.000702344
0.000103054
-0.00997877
0.00010303
-0.000409855
-0.00799017
0.00101278
-0.000952514
-0.00630469
0.00142447
-0.00120838
-0.00526102
0.00162288
-0.00113362
-0.00464781
0.00170972
-0.000778497
-0.00434975
0.00172837
-0.000218727
-0.00424619
0.00171195
0.000372067
-0.00426197
0.00167702
0.000714202
-0.00437478
0.00168845
0.000632386
-0.00452675
0.0017972
0.000353831
-0.00482696
0.00180215
0.000231649
-0.00502348
0.001644
0.000253051
-0.00506192
0.00160627
0.00033357
-0.00499986
0.00167314
0.000403713
-0.00493466
0.00176139
0.0003533
-0.00503036
0.00177589
0.000124302
-0.00543144
0.00167342
-0.000281413
-0.0062417
0.00142462
-0.000516665
-0.00759184
0.000918308
-0.00912945
-7.78077e-05
-0.000515157
-0.00894838
-0.000515176
-0.00155161
-0.00740253
0.000448856
-0.00232427
-0.00630308
0.000771102
-0.00265842
-0.00576624
0.000839408
-0.00254501
-0.0055259
0.00076471
-0.00206399
-0.00547352
0.000642768
-0.00131946
-0.00551217
0.000521476
-0.000465344
-0.00556858
0.000452514
0.00023157
-0.00559791
0.000526247
0.000463401
-0.00562185
0.000863296
0.000504447
-0.0058261
0.000958129
0.000811443
-0.00599301
0.000662562
0.00126577
-0.00603568
0.000519474
0.00168697
-0.00597211
0.000551078
0.0019383
-0.00586653
0.000680573
0.00191389
-0.00581542
0.00080949
0.00153811
-0.00592083
0.000865197
0.000839676
-0.00628156
0.000738324
0.000100235
-0.00713506
0.000282684
-0.00826764
-0.00076154
-0.00142166
-0.00610498
-0.00142168
-0.00291981
-0.00515559
-0.000748749
-0.0038341
-0.00471531
-0.000673445
-0.00416159
-0.0046679
-0.000770816
-0.00397036
-0.00476868
-0.000948437
-0.00335513
-0.00494275
-0.001146
-0.00241416
-0.0051358
-0.00131734
-0.00128549
-0.005295
-0.00140224
-0.000222538
-0.00536124
-0.00129962
0.000345349
-0.00537106
-0.000818669
0.000768289
-0.00548854
-0.000760486
0.00153451
-0.00556979
-0.00118942
0.00238104
-0.00553331
-0.00134889
0.003078
-0.00538053
-0.00128852
0.00349321
-0.00516137
-0.00112035
0.00353156
-0.00493197
-0.000921781
0.00311595
-0.00475589
-0.000749308
0.00221946
-0.00470508
-0.000679966
0.000933499
-0.00500667
-0.0008424
-0.00566289
-0.00167123
-0.00305246
-0.00305248
-0.00494435
-0.00326367
-0.00583955
-0.00382009
-0.00608914
-0.00441832
-0.00580915
-0.00504867
-0.00507544
-0.00567648
-0.0039448
-0.00626645
-0.00248897
-0.00675084
-0.000881271
-0.00696896
0.000288135
-0.00654048
0.00134027
-0.00654068
0.00270022
-0.00692974
0.00393164
-0.00676473
0.00486321
-0.00631209
0.00541131
-0.00570946
0.00552523
-0.00504587
0.00515296
-0.0043836
0.00422166
-0.00377376
0.00247249
-0.00325748
-0.00319037
0.000154254
-0.000210634
0.000111595
0.000278194
-0.000247884
0.000278195
0.000394968
-0.000307037
0.000452232
0.000507856
-0.000377517
0.000628818
0.000607502
-0.000442053
0.000803601
0.000667595
-0.000479287
0.000966895
0.00069163
-0.000519557
0.00111544
0.000714379
-0.000593808
0.00124686
0.000788599
-0.000720993
0.00135893
0.000844473
-0.00077083
0.00144888
0.000654564
-0.000555075
0.0014952
7.94261e-05
-0.000182472
0.00153618
-0.000304827
-0.000342892
0.00151103
-0.000485016
-0.00047056
0.00138702
-0.000507297
-0.00055203
0.0012505
-0.000416491
-0.000601518
0.00112676
-0.000288427
-0.000590716
0.00102135
-0.000192331
-0.000524463
0.000939251
-0.000130902
-0.000470033
0.000885255
-0.000537293
0.000902829
-2.41059e-05
0.000163179
-0.000365313
-0.000219755
0.000143395
-0.000219755
-0.000496972
7.15111e-05
-0.000118699
-0.000731465
-0.000139419
1.92666e-06
-0.000891037
-0.000347839
0.00011683
-0.00100635
-0.000491899
0.000207267
-0.00105275
-0.000672646
0.000303753
-0.0011045
-0.000820959
0.000443749
-0.00116391
-0.00103881
0.000630865
-0.00112124
-0.00128072
0.000775381
-0.000798956
-0.00138797
0.000834586
-0.000224319
-0.00125643
0.00083213
0.000133922
-0.0011271
0.000700551
0.000362369
-0.00101777
0.000506298
0.000560956
-0.000981326
0.000343369
0.000718319
-0.000918571
0.000225172
0.000758987
-0.000732273
0.000142355
0.000668667
-0.000482736
7.97036e-05
0.000444804
-0.000241753
-3.56456e-06
-2.21119e-06
-6.0794e-05
0.000917517
-0.00088641
0.00124994
0.00109911
-0.000219755
0.00109911
0.000653528
0.000390995
0.000762038
-0.00016839
0.000615067
0.000403424
-0.00096452
0.000411625
8.71191e-05
-0.00145038
-2.48733e-05
-7.77316e-05
-0.00157313
-0.000577475
-0.000144041
-0.00162049
-0.000831674
-0.000101178
-0.00155664
-0.00123992
6.09114e-05
-0.00134444
-0.00169859
0.000219631
-0.000944012
-0.00201811
0.000284641
-0.000371669
-0.0020382
0.000254642
0.000181781
-0.0018325
0.000155972
0.000623023
-0.00154359
3.91372e-05
0.000873413
-0.00127562
-1.78183e-05
0.000918926
-0.000987073
-2.27048e-06
0.000729251
-0.00054878
5.34473e-05
0.000351004
-7.87747e-05
0.000176366
5.02409e-05
0.00014748
0.000330333
0.000209421
0.00049118
0.0017737
-0.00365516
0.00275535
0.00277429
-0.0022209
0.0027743
0.00300977
-0.000712378
0.0024509
0.0025038
0.000465221
0.00192616
0.00143477
0.00107622
0.00132909
0.000155493
0.00103023
0.000688189
-0.000856511
0.000366587
-3.85211e-05
-0.00119451
-0.000485231
-0.000301049
-0.00113315
-0.00130495
-0.000259457
-0.000981176
-0.0018776
-0.000142297
-0.000719817
-0.00232704
-5.78236e-05
-0.00037725
-0.0024376
-1.31316e-05
-4.88327e-05
-0.00220845
5.11396e-05
7.13262e-05
-0.0017323
0.000178146
-0.000238043
-0.00107681
0.000372405
-0.000996813
-0.000436356
0.000729644
-0.001767
-0.000152454
0.00125354
-0.00201351
-0.000422868
0.0018486
-0.00145715
-0.00116073
0.00234933
-0.00201757
0.0025699
0.00163541
-0.00607505
0.0020613
0.00273013
-0.00441032
0.00273013
0.00339259
-0.00256982
0.00300597
0.00360728
-0.000824932
0.0029219
0.00335967
0.000454312
0.00259577
0.00267973
0.0010904
0.00208784
0.00161155
0.00109222
0.0014553
0.0005716
0.000460437
0.00075293
-9.83559e-05
-0.000554056
0.000210378
-0.000348244
-0.00153045
9.29094e-05
-0.000411227
-0.0021901
0.000135098
-0.000510354
-0.0023164
0.000284073
-0.000871288
-0.0019215
0.000620493
-0.00162151
-0.00121499
0.00112067
-0.00260292
-0.000547678
0.00168005
-0.00336037
-0.000392673
0.00225311
-0.00351067
-0.000973016
0.00273907
-0.00294437
-0.00212945
0.00298613
-0.00176762
-0.00347918
0.00288877
-0.00474537
0.0024245
0.00132712
-0.00749032
0.000780137
0.00200285
-0.00576174
0.00200284
0.00227739
-0.0038323
0.00268715
0.00238796
-0.0020169
0.00301053
0.00242929
-0.00059983
0.00307345
0.00235036
0.000307897
0.00290255
0.00207371
0.00073303
0.00256025
0.00157357
0.000554223
0.00213987
0.00100281
-0.000149948
0.00167343
0.000472241
-0.000958945
0.0013151
-2.02643e-05
-0.00161233
0.00118721
-0.00061661
-0.00175693
0.00130793
-0.00137449
-0.00143928
0.00170838
-0.0021564
-0.000996213
0.00225792
-0.00271765
-0.000812825
0.00276858
-0.00291757
-0.00120308
0.00304817
-0.00278817
-0.00218175
0.00302879
-0.00233191
-0.00358697
0.00272927
-0.00144916
-0.00507497
0.00205731
-0.00638645
0.000894288
0.00101279
-0.00799015
-0.00040988
0.00121822
-0.00617256
0.00121821
0.00105978
-0.00436984
0.00212047
0.000895681
-0.00281979
0.00258988
0.000865963
-0.00169099
0.00283061
0.000976759
-0.000928002
0.00285348
0.0011618
-0.000482901
0.00274284
0.00123227
-0.00043311
0.00259389
0.00105602
-0.000796016
0.00251079
0.000657227
-0.00126113
0.00249824
0.000154315
-0.00170608
0.00239888
-0.000398864
-0.00188349
0.0023238
-0.000901647
-0.00180911
0.00247894
-0.00124838
-0.00170926
0.00273295
-0.00144374
-0.00176972
0.00291366
-0.00156377
-0.00219105
0.00288391
-0.00165309
-0.00303893
0.00261993
-0.00160957
-0.00428855
0.0020827
-0.00118289
-0.00567377
0.00109045
-0.00706401
-0.000583116
0.000448868
-0.00740252
-0.00155163
0.000191497
-0.00565776
0.000191479
-0.000357406
-0.00413898
0.00108919
-0.000650418
-0.00314642
0.00145908
-0.00063239
-0.00249497
0.00155068
-0.00036058
-0.00209577
0.00153874
5.80416e-05
-0.00186851
0.00148848
0.000444955
-0.00178719
0.00141969
0.000582274
-0.00185198
0.00144491
0.000450396
-0.00192851
0.00166258
0.000175938
-0.00217523
0.00170178
-5.3999e-06
-0.00242386
0.00138431
-3.57551e-05
-0.00251242
0.00125317
9.24309e-06
-0.00254198
0.00133882
5.55383e-05
-0.00263075
0.00149533
-3.3794e-05
-0.00287174
0.00157954
-0.000296441
-0.00336484
0.00145378
-0.000663518
-0.00416737
0.000984237
-0.000714706
-0.0053282
-1.16721e-05
-0.00668712
-0.00185311
-0.000748739
-0.00515558
-0.00291983
-0.00166974
-0.00381573
-0.00166975
-0.00238419
-0.00299989
-0.00109806
-0.00268306
-0.00263033
-0.000988024
-0.00255692
-0.00244073
-0.00112882
-0.00208249
-0.00235697
-0.00135923
-0.00136481
-0.0023316
-0.00157194
-0.000563478
-0.00233076
-0.00166
8.84524e-05
-0.00231966
-0.00148387
0.00033693
-0.00223948
-0.000756174
0.000441409
-0.00235152
-0.000688663
0.000871533
-0.00255764
-0.00148575
0.00138955
-0.00262944
-0.00174988
0.00183434
-0.00264362
-0.00163166
0.00210122
-0.00264343
-0.00137453
0.00209606
-0.00266892
-0.00111942
0.00175256
-0.00277742
-0.000993226
0.00110467
-0.00303223
-0.00116719
0.000447851
-0.00366649
-0.00184728
-0.00471075
-0.00319972
-0.00326366
-0.00494437
-0.00517151
-0.00517153
-0.00611173
-0.00587977
-0.00640778
-0.00675262
-0.00618469
-0.00771251
-0.00552241
-0.00869575
-0.00447381
-0.00964668
-0.00309922
-0.0104562
-0.00149684
-0.010891
0.000247482
-0.0105243
0.00193781
-0.0105825
0.00338108
-0.0109307
0.00454865
-0.0105618
0.00538391
-0.00979099
0.00584393
-0.00881292
0.00589931
-0.00777019
0.00550135
-0.00676305
0.00456654
-0.00587118
0.00283358
-0.005191
-0.00506753
0.000261964
-0.000326428
0.000176061
0.000452229
-0.000307037
0.00039497
0.000619417
-0.000334371
0.000619422
0.000762047
-0.000366295
0.000852493
0.000854749
-0.000374709
0.00108562
0.00086854
-0.000360414
0.00131353
0.000808821
-0.000362856
0.00153803
0.000737135
-0.000440717
0.00175928
0.000736819
-0.000612274
0.00197156
0.000760118
-0.000733191
0.00215881
0.000567687
-0.000567415
0.00225506
2.14059e-05
-0.000210322
0.00229275
-0.000320155
-0.000354683
0.00220727
-0.000499945
-0.000427517
0.00199434
-0.000559767
-0.000464445
0.00177478
-0.000519991
-0.00049895
0.00158596
-0.000425094
-0.000507998
0.00143447
-0.000323563
-0.000483168
0.0013209
-0.000212419
-0.000473277
0.0012474
-0.000544304
0.00123472
-1.73496e-05
0.000170927
-0.000845341
-0.000118702
7.15113e-05
-0.00049697
-0.000247376
-7.70359e-05
-0.000247369
-0.000382866
-0.000202647
-2.62342e-05
-0.000519896
-0.000285328
0.000164477
-0.000660727
-0.000348101
0.000335781
-0.00079228
-0.000447262
0.000519709
-0.000934141
-0.000610887
0.000755781
-0.00106438
-0.000901381
0.00105023
-0.00108309
-0.00124069
0.00130164
-0.000820154
-0.00140633
0.00141064
-0.000294036
-0.00128653
0.0013823
2.40597e-05
-0.00112883
0.00115666
0.000222503
-0.00096881
0.000849187
0.000374803
-0.000874651
0.000601307
0.000488098
-0.000798887
0.000411841
0.000510037
-0.00065212
0.00026456
0.00041445
-0.000447163
0.000139299
0.000238393
-0.000304978
4.19825e-06
-0.000225009
-0.000141699
0.000635934
0.000209748
0.000575184
0.000762032
0.000390998
0.000653527
0.000450145
0.000546734
0.00045015
-9.83537e-05
0.000533737
0.000215522
-0.000648779
0.000317139
3.50519e-05
-0.00103137
3.54755e-07
-4.3625e-05
-0.00121984
-0.000358807
-4.40422e-05
-0.00134741
-0.00065182
6.73154e-05
-0.00138178
-0.00111849
0.000312412
-0.00127543
-0.0016638
0.000536456
-0.000971647
-0.00203985
0.000614483
-0.000479649
-0.00206696
0.000543182
9.5561e-06
-0.00182928
0.000367297
0.000410232
-0.00149842
0.000168139
0.000646577
-0.00116995
4.11841e-05
0.000724933
-0.000875011
-4.47042e-06
0.000656337
-0.000517021
-1.30355e-05
0.000434136
-3.45934e-05
-1.40104e-05
0.000175112
0.000338242
-5.38744e-05
0.000646112
-0.000204836
0.00158299
-0.00157059
0.00295272
0.0024509
-0.000712369
0.00300977
0.00265124
0.000146052
0.00265124
0.00220456
0.000861075
0.00204549
0.00132721
0.00114988
0.00137371
0.000319856
0.000990849
0.000705046
-0.000519532
0.000375091
6.69475e-05
-0.000865076
-0.000434476
-0.000172857
-0.000936364
-0.00118704
-0.000119591
-0.000913503
-0.00185095
2.20625e-05
-0.00076543
-0.00235257
0.000106929
-0.000496454
-0.00247181
0.00012285
-0.000218627
-0.00220079
0.000144926
-7.46188e-05
-0.0016931
0.000228888
-0.000239713
-0.00101752
0.000385125
-0.000763312
-0.000315385
0.000693649
-0.00133534
0.000101456
0.00120712
-0.00150018
0.000141616
0.00183727
-0.00106693
-7.24839e-05
0.00232682
-0.000343668
0.00249274
0.00181098
-0.00384686
0.0025266
0.00300597
-0.00256981
0.00339258
0.00370578
-0.00125357
0.00370578
0.00390564
3.61122e-05
0.00354697
0.00357666
0.00101887
0.00305572
0.00284839
0.0014173
0.0023896
0.00180317
0.00125944
0.00161617
0.000760002
0.000540451
0.000821183
3.07459e-05
-0.000513557
0.000266182
-0.000318869
-0.00155359
0.000145231
-0.000481733
-0.00224183
0.000187311
-0.000633365
-0.0023849
0.000348906
-0.000994352
-0.00191159
0.000692377
-0.00171255
-0.00105448
0.00120034
-0.00264807
-0.000235043
0.00183317
-0.00337124
0.000100735
0.00256023
-0.00353685
-0.000204912
0.00321108
-0.0030006
-0.000985117
0.00357662
-0.00183901
-0.00186904
0.00352375
-0.00274387
0.00298569
0.00169919
-0.0054229
0.000657017
0.00268715
-0.00383229
0.00227737
0.00324723
-0.00237371
0.00324722
0.00350369
-0.000869684
0.00365987
0.00351932
0.000388489
0.00368819
0.00324217
0.00119723
0.00339974
0.0027213
0.00140898
0.00293154
0.00196897
0.00107182
0.00236082
0.00118086
0.000210188
0.00173781
0.000466669
-0.000763132
0.00123889
-0.000180465
-0.00147179
0.00106438
-0.000928499
-0.00159016
0.00126131
-0.0018794
-0.00106207
0.00180985
-0.00285737
-0.000344149
0.00252562
-0.00354476
3.00319e-06
0.00321796
-0.00376569
-0.000231165
0.00360102
-0.0035214
-0.00105798
0.00363758
-0.002862
-0.00218917
0.00327393
-0.00176583
-0.00327108
0.0023632
-0.00446652
0.00085112
0.00142447
-0.00630467
-0.000952537
0.00212048
-0.00436982
0.00105976
0.00237253
-0.00287778
0.00237252
0.00241888
-0.00145221
0.00312607
0.0023819
-0.000200992
0.00345707
0.00231478
0.00065333
0.0034645
0.00217747
0.00101709
0.00327202
0.00194038
0.00090555
0.00299724
0.00148775
0.000423905
0.00274973
0.000769959
-0.000132366
0.0025853
-6.63288e-06
-0.000743336
0.00244708
-0.000871453
-0.000901359
0.00249989
-0.00173012
-0.000625474
0.00290106
-0.00238644
-0.000266703
0.00331186
-0.00276398
-0.000256858
0.00355108
-0.00287046
-0.00078459
0.00354383
-0.00276679
-0.00167548
0.00313377
-0.0023805
-0.00278704
0.00229429
-0.00154229
-0.00391665
0.000897834
-0.00546015
-0.00113175
0.000771109
-0.00630307
-0.00232429
0.0010892
-0.00413897
-0.000357428
0.000988657
-0.00267667
0.000988635
0.000851126
-0.00156281
0.00170723
0.000858093
-0.000734546
0.00207727
0.00102398
-0.000199516
0.0022257
0.00119338
0.000102891
0.00223327
0.0012326
0.000122176
0.00216386
0.00106976
-0.000130636
0.00216229
0.000633041
-0.000350138
0.0023171
-1.85277e-05
-0.000633361
0.0022434
-0.000606433
-0.000781866
0.00185276
-0.00101202
-0.000727651
0.00176096
-0.00121251
-0.00067434
0.00194697
-0.00131178
-0.000777092
0.00211485
-0.00141033
-0.00114336
0.00203687
-0.00151267
-0.0017821
0.00166274
-0.00146663
-0.00267763
0.000828808
-0.000963408
-0.00380267
-0.000628859
-0.00564034
-0.00263631
-0.000673438
-0.00471531
-0.00383412
-0.00109804
-0.00299989
-0.00238421
-0.00144803
-0.00197668
-0.00144805
-0.00152414
-0.0014186
-0.00105612
-0.00131944
-0.00104519
-0.00102289
-0.000878373
-0.000776075
-0.00122375
-0.000282562
-0.000576961
-0.00148791
0.000258011
-0.000437005
-0.0016414
0.000532921
-0.000325293
-0.00156412
0.000465141
-5.02933e-05
-0.000988231
0.000280328
-0.000185926
-0.000951273
0.000300072
-0.000641158
-0.00164619
0.000467737
-0.000847846
-0.00179734
0.000688637
-0.000989553
-0.00153734
0.000885057
-0.00112895
-0.00121909
0.00097042
-0.00130782
-0.00104032
0.000869745
-0.00158434
-0.0010903
0.000608192
-0.00201562
-0.00156764
0.000424642
-0.00286195
-0.00260444
-0.00431294
-0.00410246
-0.00382008
-0.00583958
-0.00587976
-0.00611175
-0.00686811
-0.00686812
-0.00718
-0.00785936
-0.00695631
-0.00898143
-0.00628229
-0.0101459
-0.00519946
-0.0113065
-0.00373835
-0.0123544
-0.00193366
-0.0130211
0.000285255
-0.0127936
0.00245147
-0.0129347
0.0041079
-0.0132283
0.0053478
-0.0126495
0.00619276
-0.0116255
0.00664317
-0.0103923
0.00668715
-0.00912201
0.00627853
-0.00793878
0.00530998
-0.00691825
0.00342667
-0.00616963
-0.00595379
0.000364178
-0.000445208
0.000257104
0.000628814
-0.000377516
0.000507861
0.000852486
-0.000366295
0.000762055
0.00102816
-0.000351349
0.00102817
0.00112545
-0.000312796
0.00130113
0.00111275
-0.000257301
0.00158354
0.000992658
-0.000227534
0.00188565
0.000837819
-0.000299841
0.00221397
0.000758253
-0.000504745
0.0025559
0.000723735
-0.000683596
0.00287696
0.000483424
-0.00055182
0.0030472
-6.06728e-05
-0.000202296
0.00303911
-0.000396789
-0.000330812
0.00287419
-0.000581677
-0.000372282
0.00255152
-0.000665279
-0.000380783
0.00223918
-0.000654002
-0.00040902
0.00198371
-0.000569911
-0.000437691
0.00178808
-0.00044648
-0.000444538
0.00164202
-0.000281176
-0.000457281
0.00153938
-0.000525421
0.00147897
5.5348e-06
-8.73891e-05
-0.0012087
1.92147e-06
-0.000139419
-0.00073146
-2.6242e-05
-0.000202646
-0.000382858
-8.65176e-05
-0.000230807
-8.65062e-05
-0.000181379
-0.000233879
0.000180414
-0.000316741
-0.000223492
0.000437321
-0.000498495
-0.000244251
0.000718163
-0.000714075
-0.000393247
0.00106476
-0.000928665
-0.000723902
0.00148398
-0.00103914
-0.00113471
0.00186328
-0.000855215
-0.00134414
0.00201912
-0.000388647
-0.00122543
0.00193895
-0.000106566
-0.00104992
0.00159375
4.34799e-05
-0.000857599
0.00118449
0.000164279
-0.000748439
0.000848189
0.000253874
-0.000678813
0.000592057
0.000280957
-0.000589658
0.00038946
0.000218953
-0.000454331
0.000211106
9.33975e-05
-0.000354582
2.70573e-05
-0.000378572
-0.000195148
0.000336
0.000704981
-0.000553203
0.000403417
0.000615067
-0.000168391
0.000215515
0.000533736
-9.83467e-05
-9.77776e-05
0.000395755
-9.77685e-05
-0.000428358
0.000213172
-8.14462e-05
-0.00068848
1.71848e-05
-2.42105e-05
-0.000889657
-0.000166427
7.92802e-05
-0.00106858
-0.000438614
0.000291588
-0.00119983
-0.000909171
0.000628942
-0.00120768
-0.00151244
0.000922102
-0.00100892
-0.00192926
0.00100095
-0.000597986
-0.00195707
0.00086399
-0.000166903
-0.00170246
0.000588832
0.000203562
-0.00136726
0.000307391
0.000448318
-0.00105531
0.000103331
0.000545592
-0.00075997
-2.05665e-05
0.000552763
-0.000498688
-0.000111165
0.000448341
-0.000124064
-0.00023986
0.000246872
0.000254157
-0.00046116
0.000579007
-0.000915559
0.00127034
-7.99478e-06
0.00239532
0.00192615
0.000465229
0.00250379
0.00204549
0.000861077
0.00220456
0.00168651
0.00111372
0.00168651
0.00103067
0.00112367
0.00111904
0.000302229
0.000859672
0.00059098
-0.000282654
0.000314373
0.000171004
-0.00057163
-0.000345695
2.31842e-05
-0.000733193
-0.000984298
0.000117115
-0.000830675
-0.00168935
0.000296506
-0.000795518
-0.00222443
0.000367029
-0.000601611
-0.00235075
0.00032273
-0.000346486
-0.00206894
0.000256361
-0.000153321
-0.00158519
0.000253708
-0.000166253
-0.000987981
0.000330768
-0.000438622
-0.000299875
0.000505938
-0.000824441
0.000242154
0.000852105
-0.000965018
0.000519158
0.00133465
-0.000688802
0.000621131
0.00168365
0.000673329
0.00170961
0.00184645
-0.00203126
0.00270341
0.0029219
-0.000824917
0.00360727
0.00354697
3.61179e-05
0.00390564
0.00367545
0.000856717
0.00367545
0.00335371
0.00136505
0.00313604
0.00267849
0.00149139
0.00243308
0.00177211
0.0011817
0.00165522
0.000874733
0.000463448
0.000909418
0.000193459
-0.000483684
0.000446855
-0.000233325
-0.00146484
0.000347556
-0.000501161
-0.00215569
0.000386478
-0.000696667
-0.00232398
0.000517723
-0.000997552
-0.00186427
0.000788666
-0.00156446
-0.00102288
0.001205
-0.00234393
-0.000149884
0.0017746
-0.00297036
0.000379404
0.00250743
-0.00313754
0.000399869
0.00322058
-0.00270265
1.80783e-05
0.00364279
-0.00172656
-0.000447177
0.00361593
-0.00113933
0.00307175
0.00192913
-0.00389402
0.000590659
0.00301054
-0.00201689
0.00238794
0.00365987
-0.000869676
0.00350368
0.00399442
0.00018761
0.00399441
0.00398393
0.00107505
0.00398864
0.00367255
0.00153503
0.00366744
0.00309268
0.00154207
0.00315101
0.0022765
0.00111763
0.0025228
0.00140486
0.000267334
0.00185845
0.000547995
-0.000702465
0.0013334
-0.00024812
-0.0014505
0.00115536
-0.00109487
-0.0015976
0.00138175
-0.002093
-0.00100749
0.00195128
-0.00308981
-0.000179296
0.0026789
-0.00382659
0.000398539
0.00340635
-0.00405769
0.000362801
0.00384873
-0.003783
-0.000143309
0.00390606
-0.00309575
-0.000882782
0.00348754
-0.00197631
-0.00167095
0.00246753
-0.00305645
0.000791939
0.00162288
-0.005261
-0.0012084
0.00258989
-0.00281977
0.000895659
0.00312608
-0.0014522
0.00241886
0.00330531
-0.000170833
0.00330529
0.00331709
0.000797117
0.00372322
0.00318535
0.00136334
0.00376792
0.00290983
0.00152133
0.00356826
0.00249655
0.00128891
0.00323921
0.00186727
0.000758039
0.00288832
0.000963107
0.000194457
0.00259256
-8.12687e-05
-0.000352636
0.00239362
-0.00121242
-0.000510282
0.00254376
-0.00231986
-6.04175e-05
0.00306148
-0.00311547
0.000352712
0.00357549
-0.00352372
0.000527243
0.00383063
-0.00363519
0.000243081
0.00377502
-0.00340264
-0.000538774
0.00329669
-0.00279248
-0.00147921
0.00228057
-0.00174166
-0.00248903
0.000665112
-0.00447117
-0.00145868
0.000839413
-0.00576622
-0.00265845
0.00145909
-0.00314641
-0.000650442
0.00170725
-0.00156281
0.000851102
0.00185123
-0.000458781
0.0018512
0.00194689
0.000387827
0.0023909
0.00197437
0.00101766
0.00254389
0.00196152
0.0012567
0.00251075
0.00182837
0.00118524
0.00240066
0.00147138
0.000931141
0.00234618
0.000722789
0.000808735
0.00245142
-0.000238326
0.000445132
0.00240676
-0.00108072
1.36306e-05
0.00217126
-0.00167318
6.37299e-05
0.00222929
-0.00204324
0.000211719
0.00245803
-0.00222516
0.000225848
0.00259818
-0.00221576
-0.000138254
0.00240881
-0.00212039
-0.000695139
0.00172375
-0.00178198
-0.00159542
0.000606624
-0.00103319
-0.00285089
-0.00101578
-0.005131
-0.00300966
-0.000770812
-0.0046679
-0.00416161
-0.000988013
-0.00263033
-0.00268308
-0.00105611
-0.00141859
-0.00152416
-0.000927699
-0.000715604
-0.000927719
-0.000597007
-0.000137332
-0.000828433
-0.00013389
0.000219073
-0.000888292
0.000321813
0.000423504
-0.00111044
0.000678833
0.000566069
-0.00137926
0.000814139
0.00075028
-0.00151857
0.000707517
0.00120918
-0.00128206
0.000415154
0.00113162
-0.00134539
0.000102038
0.000487419
-0.00180685
-6.32437e-05
0.000198229
-0.00176654
-2.06493e-05
1.99248e-05
-0.00138813
0.000200652
-0.000167833
-0.0010467
0.000370463
-0.000490491
-0.000857898
0.00049125
-0.000896772
-0.00100945
0.000508041
-0.00145823
-0.00172162
0.000518103
-0.00249588
-0.00296951
-0.00427792
-0.00443743
-0.00441831
-0.00608916
-0.00675261
-0.00640779
-0.00785935
-0.00718002
-0.00821717
-0.00821718
-0.00797752
-0.00935846
-0.0072628
-0.0106416
-0.00613476
-0.0120111
-0.0045728
-0.0133504
-0.0024997
-0.014344
0.000280422
-0.0143646
0.00304933
-0.014572
0.00500105
-0.0146927
0.00635439
-0.0138047
0.00722419
-0.0124754
0.00768087
-0.0110168
0.00770239
-0.00963405
0.00724644
-0.00837964
0.00616957
-0.00729963
0.00402034
-0.00651629
-0.00621137
0.000461175
-0.000570722
0.000366677
0.000803597
-0.000442053
0.00060751
0.00108561
-0.000374709
0.00085476
0.00130112
-0.000312796
0.00112547
0.00142024
-0.000238236
0.00142025
0.00140942
-0.000156088
0.00175044
0.0012636
-0.000107088
0.00213856
0.00104503
-0.000171082
0.00260362
0.00087692
-0.00040385
0.00312787
0.000738169
-0.000632671
0.00364841
0.000364477
-0.000513649
0.00393454
-0.000227407
-0.000156234
0.00378719
-0.00055796
-0.00027903
0.00348377
-0.000742543
-0.000292584
0.0030287
-0.000828257
-0.000290052
0.00261495
-0.000818813
-0.000316364
0.00229064
-0.000725671
-0.000357661
0.00205261
-0.000570879
-0.000391264
0.00187849
-0.000353296
-0.000430174
0.00175198
-0.000530591
0.00165628
5.14655e-05
-0.000450999
-0.00137988
0.000116824
-0.00034784
-0.000891029
0.000164467
-0.000285327
-0.000519884
0.000180402
-0.000233878
-0.000181366
0.00014791
-0.000173271
0.000147927
4.31241e-05
-9.82645e-05
0.000484262
-0.000149316
-6.41597e-05
0.00086765
-0.000419525
-0.000184325
0.00134818
-0.000734387
-0.000532569
0.00192756
-0.000980073
-0.00100178
0.00247811
-0.000915786
-0.00123151
0.00267277
-0.000530862
-0.00109574
0.00249361
-0.000304164
-0.000906065
0.00199413
-0.000178477
-0.000708284
0.00147453
-6.51313e-05
-0.000611758
0.00105656
2.93066e-05
-0.000555157
0.000736423
8.47897e-05
-0.000508745
0.00048507
8.2343e-05
-0.000438966
0.000261261
3.2722e-05
-0.000389114
3.56217e-05
-0.000451648
-0.000241364
5.0475e-05
0.000511516
-0.00156622
8.71125e-05
0.000411623
-0.000964518
3.50445e-05
0.000317138
-0.00064877
-8.14557e-05
0.000213172
-0.000428345
-0.00022998
0.000123742
-0.000229966
-0.000382398
5.73585e-05
-2.74502e-05
-0.000553074
-2.05879e-05
0.000206344
-0.00076707
-0.000215986
0.000537214
-0.000997218
-0.000670668
0.000997191
-0.00114027
-0.00131958
0.00138301
-0.00106607
-0.00175091
0.00144624
-0.000745071
-0.00175759
0.00120493
-0.000370947
-0.00149644
0.000805142
-1.71056e-05
-0.00118948
0.000434781
0.000250166
-0.00093359
0.000157913
0.00039185
-0.000670854
-4.65441e-05
0.000441621
-0.000457088
-0.000212591