/*--------------------------------*- C++ -*----------------------------------*\
| =========                 |                                                 |
| \\      /  F ield         | OpenFOAM: The Open Source CFD Toolbox           |
|  \\    /   O peration     | Version:  1.7.1                                 |
|   \\  /    A nd           | Web:      www.OpenFOAM.com                      |
|    \\/     M anipulation  |                                                 |
\*---------------------------------------------------------------------------*/
FoamFile
{
    version     2.0;
    format      ascii;
    class       volVectorField;
    location    "800";
    object      U;
}
// * * * * * * * * * * * * * * * * * * * * * * * * * * * * * * * * * * * * * //

dimensions      [0 1 -1 0 0 0 0];

internalField   nonuniform List<vector> 
4000
(
(0.00024957 -0.00211871 0.000249555)
(0.000243309 -0.00208439 0.000459273)
(0.000461368 -0.0021488 0.000658432)
(0.000691318 -0.00235531 0.000809142)
(0.00101773 -0.0025502 0.000945369)
(0.00141892 -0.00256879 0.00107222)
(0.00190497 -0.00254211 0.00119716)
(0.00239771 -0.00255482 0.00132494)
(0.00287061 -0.00254943 0.00144275)
(0.00335737 -0.00223942 0.00154441)
(0.0035663 -0.0011043 0.00161959)
(0.0016086 0.000515127 0.00167942)
(-0.000930189 -0.000537007 0.00164363)
(-0.00173042 -0.00156419 0.00149741)
(-0.00196178 -0.0021314 0.00131983)
(-0.00150509 -0.00247781 0.00116418)
(-0.000813029 -0.00262615 0.0010411)
(-0.000242797 -0.00258631 0.000963334)
(-9.61286e-05 -0.00252647 0.000927755)
(0.000109632 -0.00265406 0.00103586)
(0.000291021 0.00112447 0.000291008)
(-0.000426227 0.000176364 0.000137586)
(-0.00205985 -0.000727686 7.67777e-05)
(-0.00357254 -0.0013886 4.55542e-05)
(-0.0045491 -0.00190385 3.30744e-05)
(-0.00493645 -0.00252222 -1.66623e-06)
(-0.00477895 -0.00307046 -6.09026e-06)
(-0.0043196 -0.00327488 0.000128051)
(-0.00426811 -0.00338548 0.000359841)
(-0.00443644 -0.00314462 0.000480374)
(-0.00351574 -0.00251284 0.000504506)
(-0.00161884 -0.00155595 0.000533814)
(0.000214039 -0.00176263 0.000399214)
(0.00127131 -0.00227809 0.000204506)
(0.00199074 -0.00295005 2.96936e-05)
(0.00296537 -0.00331293 -6.52445e-05)
(0.00354906 -0.00298423 -7.10311e-05)
(0.00360602 -0.00224273 -1.39795e-05)
(0.00281082 -0.00166302 4.81542e-06)
(0.00156561 -0.00150784 0.000221102)
(0.00273315 -0.00122827 0.00273315)
(0.00462003 0.00131462 0.00232168)
(0.00361456 0.00235538 0.00164077)
(0.000167613 0.00129114 0.00088411)
(-0.00399021 -0.000715194 0.000116163)
(-0.00644175 -0.00258817 -0.000331779)
(-0.00728865 -0.00341884 -0.000597456)
(-0.00704532 -0.00351464 -0.000606802)
(-0.00651905 -0.00400638 -0.000415293)
(-0.00562273 -0.00488571 -0.000214903)
(-0.00410142 -0.00567399 -0.000117692)
(-0.0020281 -0.00553177 -0.000121481)
(0.0003303 -0.00478 -0.000187012)
(0.00241786 -0.00423966 -0.000247478)
(0.00384181 -0.00423612 -0.000258795)
(0.00447873 -0.00414689 -0.000134176)
(0.00391169 -0.00310419 9.62392e-05)
(0.00238964 -0.00117169 0.000513671)
(0.000176447 0.000947052 0.00112503)
(-0.000366637 0.00260513 0.0018465)
(0.0036019 -0.0143122 0.00360189)
(0.00807737 -0.00753426 0.00389631)
(0.0103232 -0.0011389 0.00370489)
(0.00977989 0.00328064 0.00314515)
(0.0064997 0.00444928 0.00239768)
(0.00110245 0.00232826 0.0011401)
(-0.00395045 -0.00105419 -0.000395333)
(-0.00546846 -0.00323171 -0.000838865)
(-0.00531695 -0.00456558 -0.000735243)
(-0.00421868 -0.00581472 -0.000491415)
(-0.00287615 -0.00699962 -0.000328935)
(-0.00129147 -0.00718941 -0.000236387)
(0.000395809 -0.00650416 -4.33231e-05)
(0.00149897 -0.00553882 0.000323877)
(0.0012482 -0.00431495 0.000720976)
(-0.00100419 -0.00247367 0.00132686)
(-0.00496131 -0.000142965 0.00219274)
(-0.00758693 0.000293413 0.00304494)
(-0.0071761 -0.00234148 0.00369143)
(-0.00355224 -0.00684862 0.00389259)
(0.0023615 -0.0257139 0.00236147)
(0.00613133 -0.0178528 0.0032407)
(0.00783717 -0.010185 0.00370445)
(0.00924272 -0.00364206 0.00400055)
(0.00944478 0.00112749 0.00402002)
(0.00821265 0.00332653 0.00363983)
(0.00569662 0.00346612 0.00302895)
(0.0023024 0.000929727 0.00203005)
(-0.000243051 -0.00263984 0.0010646)
(-0.000820005 -0.00551998 0.000760019)
(-0.00091507 -0.0075178 0.000778085)
(-0.000772383 -0.00788534 0.000944362)
(-0.000965636 -0.0070259 0.00150573)
(-0.00244132 -0.00530062 0.00235711)
(-0.00537027 -0.00317569 0.0031414)
(-0.00870128 -0.00229238 0.00371632)
(-0.0104613 -0.0038987 0.00398071)
(-0.00973198 -0.00813857 0.00390288)
(-0.00739191 -0.0139932 0.00350552)
(-0.00285465 -0.0203422 0.00269591)
(0.00111222 -0.0326963 0.00111217)
(0.00321269 -0.0245882 0.00230604)
(0.00210614 -0.0168339 0.00285548)
(0.00212837 -0.0106102 0.00331258)
(0.0020727 -0.00618603 0.00367093)
(0.00254596 -0.00347607 0.00379708)
(0.00336508 -0.00210503 0.00381592)
(0.00379294 -0.00240399 0.00368587)
(0.00352231 -0.00395296 0.00344236)
(0.00261364 -0.00600681 0.00336984)
(0.00127353 -0.00816557 0.00318908)
(-4.91873e-05 -0.00901407 0.00284975)
(-0.00113456 -0.00867508 0.00292664)
(-0.00252258 -0.00784664 0.00333572)
(-0.00390194 -0.00722753 0.00379171)
(-0.00484741 -0.00810934 0.00390779)
(-0.00525887 -0.010977 0.00361017)
(-0.00482319 -0.015825 0.00308604)
(-0.00472801 -0.0220562 0.00234907)
(-0.00166072 -0.0285438 0.0010145)
(-7.89104e-05 -0.0353404 -7.89563e-05)
(0.000408245 -0.0277975 0.00125238)
(-0.00298742 -0.0210838 0.00148046)
(-0.00395769 -0.0165707 0.00152272)
(-0.00429659 -0.0137279 0.00140028)
(-0.00346905 -0.0122328 0.00119901)
(-0.00181266 -0.0116618 0.000969734)
(0.000248713 -0.0117984 0.00083715)
(0.0021842 -0.0125283 0.00104174)
(0.0025495 -0.0133726 0.00183824)
(0.00172546 -0.0145873 0.00212955)
(0.000794186 -0.0153194 0.00139638)
(0.000841503 -0.0153794 0.00105341)
(0.00106835 -0.0150576 0.00114636)
(0.00137927 -0.0147763 0.00146506)
(0.00147885 -0.0153055 0.00174208)
(0.000884515 -0.0171917 0.00183079)
(0.000175459 -0.0208406 0.00167094)
(-0.00228188 -0.026269 0.00111618)
(-0.000724738 -0.0320083 -0.000547931)
(-0.00171051 -0.0329262 -0.00171057)
(-0.00282232 -0.0271504 -0.000439335)
(-0.00739575 -0.0227035 -0.000769827)
(-0.00897975 -0.0203236 -0.00124286)
(-0.00930113 -0.0191959 -0.00186731)
(-0.00816837 -0.0188971 -0.00248569)
(-0.0059589 -0.0190467 -0.00303247)
(-0.00313722 -0.0193795 -0.00338439)
(-2.1103e-05 -0.0197174 -0.00326514)
(0.0014342 -0.0199483 -0.00211112)
(0.00169506 -0.020779 -0.00172082)
(0.001975 -0.0213796 -0.00262146)
(0.00362843 -0.021407 -0.00292109)
(0.005237 -0.0210213 -0.00271285)
(0.00646243 -0.020521 -0.00219718)
(0.00692596 -0.020323 -0.00157443)
(0.00624279 -0.020873 -0.000974074)
(0.00473377 -0.0225396 -0.0005871)
(0.000593638 -0.0260293 -0.000577943)
(0.00054279 -0.0303304 -0.0023822)
(-0.00438526 -0.0253957 -0.00438532)
(-0.00715524 -0.0216592 -0.00366666)
(-0.0123722 -0.0195374 -0.00447872)
(-0.0142378 -0.0189855 -0.00538727)
(-0.0143825 -0.0191397 -0.00633619)
(-0.0128861 -0.0196688 -0.00725636)
(-0.0101083 -0.0203349 -0.00807064)
(-0.00644269 -0.0209488 -0.0086238)
(-0.00221161 -0.0213291 -0.00858255)
(0.000346763 -0.0215526 -0.00708846)
(0.00207021 -0.0220369 -0.00676608)
(0.00367678 -0.0222555 -0.0079623)
(0.00682317 -0.0220197 -0.00820377)
(0.00959665 -0.021403 -0.00778128)
(0.0115862 -0.0205868 -0.00700755)
(0.0124463 -0.0197962 -0.00608159)
(0.0118499 -0.0193062 -0.00511981)
(0.0098451 -0.0194176 -0.00424945)
(0.00485264 -0.0209119 -0.003677)
(0.00293842 -0.0235384 -0.00501613)
(-0.00873091 -0.0161729 -0.00873095)
(-0.0140471 -0.0129861 -0.00980742)
(-0.0192817 -0.0113879 -0.0117112)
(-0.0210328 -0.0108588 -0.0135903)
(-0.0208927 -0.0106782 -0.0155072)
(-0.0190433 -0.0106217 -0.0173983)
(-0.015724 -0.0105379 -0.01917)
(-0.01114 -0.0102966 -0.0206165)
(-0.00557363 -0.00979785 -0.0212397)
(-0.00132985 -0.00934248 -0.0196936)
(0.00331118 -0.00969905 -0.0194396)
(0.00680718 -0.0103549 -0.0206957)
(0.0115211 -0.0109047 -0.0202715)
(0.0153662 -0.0111832 -0.0189684)
(0.0179928 -0.0112501 -0.017207)
(0.01921 -0.01121 -0.0152438)
(0.0188212 -0.0112195 -0.0132445)
(0.0167666 -0.0114904 -0.0113354)
(0.0115984 -0.0126936 -0.00957801)
(0.00696295 -0.0150779 -0.00908259)
(0.000459277 -0.00208439 0.000243297)
(0.000689306 -0.00193438 0.000689307)
(0.00113825 -0.00194767 0.00117197)
(0.00152869 -0.00203583 0.00165181)
(0.00189736 -0.00207088 0.00212334)
(0.00218725 -0.0019897 0.00255713)
(0.00238435 -0.00190758 0.00293243)
(0.00252593 -0.00195244 0.00324129)
(0.00273094 -0.00210741 0.00347831)
(0.00300416 -0.0019681 0.00364666)
(0.00321497 -0.000895179 0.00373096)
(0.00132854 0.000699589 0.0038479)
(-0.000862865 -0.000313876 0.0038319)
(-0.00159848 -0.00116981 0.00356472)
(-0.00190034 -0.00161301 0.00324921)
(-0.00165151 -0.00192294 0.00295174)
(-0.00118736 -0.00211846 0.00268317)
(-0.000755505 -0.00220239 0.0024627)
(-0.000537751 -0.0022822 0.00230838)
(-0.000205793 -0.00253761 0.00237541)
(0.000137586 0.000176354 -0.000426245)
(-0.000326801 -0.000345956 -0.000326798)
(-0.00117479 -0.000796365 -0.000209842)
(-0.00210782 -0.00112499 3.13426e-05)
(-0.00283934 -0.0014374 0.000297731)
(-0.00332566 -0.0017565 0.000488882)
(-0.00356818 -0.00212983 0.000665827)
(-0.00362205 -0.00250692 0.000978938)
(-0.00382804 -0.00302778 0.00143385)
(-0.00409098 -0.00326086 0.00175344)
(-0.00340869 -0.0028462 0.00186947)
(-0.00176415 -0.00196877 0.00189388)
(-7.64854e-05 -0.00208076 0.00159596)
(0.000927158 -0.00227754 0.00113569)
(0.00157699 -0.00254847 0.000747619)
(0.00226422 -0.00268731 0.000497318)
(0.00262198 -0.00243418 0.000347027)
(0.0025577 -0.00188099 0.000247973)
(0.00197378 -0.00151504 2.90712e-05)
(0.0010114 -0.00194565 7.65845e-06)
(0.00232167 0.00131464 0.00462002)
(0.00386345 0.00168672 0.00386347)
(0.00334393 0.00154522 0.00265557)
(0.000997194 0.000625686 0.00142802)
(-0.00214654 -0.000729439 0.000286127)
(-0.00425878 -0.00179698 -0.000312235)
(-0.00531785 -0.00246012 -0.000597796)
(-0.00558272 -0.00299121 -0.000523229)
(-0.00554085 -0.00399209 -9.35154e-05)
(-0.00509771 -0.00527594 0.000341614)
(-0.00403786 -0.00619848 0.00053118)
(-0.0023374 -0.00608248 0.000481704)
(-0.000317855 -0.00533911 0.00025655)
(0.00150728 -0.00460238 -1.62083e-05)
(0.00272709 -0.00415813 -0.00012837)
(0.00321411 -0.00371228 -7.99148e-06)
(0.00287327 -0.0028947 0.000270918)
(0.00190135 -0.00143965 0.00081318)
(0.000499194 0.000389343 0.00154679)
(-3.20998e-05 0.00229641 0.00238932)
(0.0038963 -0.00753419 0.00807737)
(0.00815487 -0.00327751 0.00815489)
(0.0104767 0.000955626 0.00725717)
(0.00999281 0.00357704 0.00572527)
(0.00708429 0.00373331 0.00403484)
(0.00277726 0.00191695 0.00212024)
(-0.00188326 -0.00110108 -0.000300819)
(-0.00374391 -0.00307208 -0.00108165)
(-0.00415122 -0.00474575 -0.000948596)
(-0.00371929 -0.00642583 -0.000567439)
(-0.00298968 -0.00778341 -0.000295575)
(-0.00189902 -0.00804603 -0.000143578)
(-0.000645301 -0.00733276 0.00010703)
(0.000272519 -0.00614098 0.000557754)
(8.17016e-05 -0.00459776 0.00118373)
(-0.00181756 -0.00244662 0.00231294)
(-0.00489732 -8.76376e-05 0.0039179)
(-0.00701691 0.00128945 0.00567765)
(-0.00646526 0.000730897 0.00716921)
(-0.00344735 -0.00104506 0.00790428)
(0.0032407 -0.0178527 0.00613131)
(0.00787476 -0.0122999 0.00787476)
(0.010654 -0.00624414 0.00856433)
(0.0124338 -0.000592415 0.00840131)
(0.0124363 0.00329558 0.00753949)
(0.010618 0.00460638 0.00618691)
(0.00752531 0.00362244 0.00447826)
(0.00353264 0.000338037 0.00247805)
(0.000221619 -0.00363454 0.000879044)
(-0.000899953 -0.00645694 0.00054254)
(-0.00131706 -0.00826051 0.000702334)
(-0.00149377 -0.00860031 0.001183)
(-0.00209616 -0.0074392 0.00220484)
(-0.00397504 -0.00506543 0.00364031)
(-0.00725541 -0.00214461 0.00517525)
(-0.0106962 -0.000371169 0.00670471)
(-0.0123821 -0.00122592 0.00795313)
(-0.0114287 -0.00446675 0.00854402)
(-0.00842344 -0.00872989 0.00824314)
(-0.0035675 -0.0129183 0.00695356)
(0.00230606 -0.0245881 0.00321263)
(0.00646224 -0.0185583 0.00646222)
(0.00728874 -0.0118801 0.0081961)
(0.00810365 -0.0054634 0.00902522)
(0.00837448 -0.00034743 0.00930796)
(0.00843729 0.00298214 0.00894672)
(0.00772265 0.00403764 0.00817426)
(0.00629035 0.00307162 0.00718572)
(0.00439636 0.000349635 0.00605794)
(0.0025091 -0.00311279 0.00518617)
(0.00083048 -0.00574514 0.00483725)
(-0.000973934 -0.00630878 0.00511655)
(-0.00323868 -0.00490526 0.00608434)
(-0.00609855 -0.00277003 0.00740568)
(-0.00861027 -0.00156301 0.00859171)
(-0.00997955 -0.00260318 0.00916326)
(-0.0100534 -0.00587536 0.0090019)
(-0.00884417 -0.0106992 0.00820944)
(-0.00710216 -0.0158429 0.00647454)
(-0.00259721 -0.0204838 0.00332393)
(0.00125241 -0.0277974 0.000408164)
(0.00499193 -0.0216515 0.00499189)
(0.00361697 -0.0150368 0.00733725)
(0.00330851 -0.00900184 0.00848287)
(0.00290089 -0.00434828 0.00905923)
(0.00307609 -0.00122089 0.00921778)
(0.00374094 0.000425454 0.00915637)
(0.00418455 0.000235434 0.00899159)
(0.00408569 -0.00164558 0.00894097)
(0.00308494 -0.00390724 0.00896254)
(0.00147101 -0.00566557 0.00874161)
(-0.00046359 -0.00621132 0.00839357)
(-0.0022508 -0.00563824 0.00847428)
(-0.00376207 -0.00479732 0.0088358)
(-0.00468309 -0.00470631 0.00914902)
(-0.00518153 -0.00633166 0.00905367)
(-0.00557737 -0.00973885 0.00841702)
(-0.00545661 -0.014532 0.00710038)
(-0.00583292 -0.0196339 0.00449146)
(-0.0016841 -0.024216 -0.000298469)
(-0.000439319 -0.0271503 -0.0028224)
(0.00257582 -0.0212866 0.00257576)
(-0.000906977 -0.0155355 0.00493557)
(-0.00191055 -0.0110692 0.00575285)
(-0.00243716 -0.00782118 0.00583047)
(-0.0018362 -0.00557032 0.00560075)
(-0.000552049 -0.00413189 0.00533723)
(0.000924461 -0.00350605 0.00520955)
(0.00203207 -0.00380653 0.0054591)
(0.00188814 -0.00441244 0.00634724)
(0.00111243 -0.0057619 0.00657451)
(0.000109242 -0.00692006 0.00566598)
(-0.000121978 -0.0073581 0.00513979)
(-8.31858e-05 -0.00758934 0.0051876)
(0.000183866 -0.00815914 0.00554206)
(0.000224299 -0.00951933 0.00582414)
(-0.000476944 -0.0119867 0.00564922)
(-0.00127764 -0.0155563 0.00452995)
(-0.00377191 -0.0198377 0.00176334)
(-0.000176978 -0.0242993 -0.00395479)
(-0.00366664 -0.0216592 -0.00715532)
(-0.00304991 -0.0167802 -0.00304996)
(-0.00767671 -0.0135132 -0.0017158)
(-0.00908138 -0.0118906 -0.00169019)
(-0.00932643 -0.0110791 -0.0022799)
(-0.00818904 -0.010842 -0.0030773)
(-0.006042 -0.0109892 -0.00379624)
(-0.00333497 -0.0114283 -0.00410155)
(-0.000393582 -0.0120607 -0.00350449)
(0.000782047 -0.0124593 -0.00121841)
(0.0014771 -0.0130088 -0.00103929)
(0.00202829 -0.0132904 -0.00320447)
(0.00395905 -0.0129954 -0.00404671)
(0.00568245 -0.0125287 -0.00380694)
(0.00696499 -0.0121352 -0.00308187)
(0.00748888 -0.0120133 -0.00228539)
(0.00690238 -0.0123993 -0.00174552)
(0.00553293 -0.0134914 -0.00194804)
(0.00142452 -0.015943 -0.00368226)
(0.00279303 -0.0197551 -0.00823758)
(-0.0098074 -0.0129861 -0.0140471)
(-0.0146652 -0.00842995 -0.0146653)
(-0.0201877 -0.00582307 -0.0168912)
(-0.0220583 -0.00447381 -0.0195309)
(-0.022119 -0.00357222 -0.0224112)
(-0.020519 -0.00285892 -0.0253412)
(-0.0175126 -0.00216056 -0.028128)
(-0.0132493 -0.00134468 -0.030441)
(-0.0078419 -0.00029745 -0.0315887)
(-0.00305677 0.000950903 -0.0302362)
(0.00476068 0.000776386 -0.0303321)
(0.00916332 -0.000608837 -0.0315166)
(0.0139113 -0.00177495 -0.0305536)
(0.0174336 -0.00272796 -0.028378)
(0.0196826 -0.0035274 -0.0255582)
(0.0206114 -0.00424408 -0.0224956)
(0.020054 -0.0050441 -0.0194985)
(0.0179879 -0.00615512 -0.0168158)
(0.0127432 -0.00831677 -0.0147244)
(0.00850211 -0.0120375 -0.0145546)
(0.00065843 -0.0021488 0.000461358)
(0.00117197 -0.00194767 0.00113825)
(0.00183089 -0.00191471 0.00183091)
(0.0023692 -0.00189551 0.00253958)
(0.0027859 -0.00179818 0.00324405)
(0.00299308 -0.00162136 0.00391806)
(0.00295833 -0.00147388 0.00455811)
(0.00276141 -0.00152041 0.00515556)
(0.00266517 -0.00178915 0.0056953)
(0.0027152 -0.00182039 0.00614378)
(0.00292448 -0.000838098 0.00636665)
(0.000968954 0.00072967 0.00650555)
(-0.000917638 -0.000272142 0.00633339)
(-0.00162395 -0.000986158 0.00578312)
(-0.00199377 -0.00132387 0.00518693)
(-0.00192199 -0.00159962 0.00465415)
(-0.001618 -0.00182597 0.00421109)
(-0.00124619 -0.0019875 0.00387197)
(-0.000892142 -0.00217221 0.00365109)
(-0.000445703 -0.00247056 0.00366149)
(7.67716e-05 -0.000727694 -0.00205987)
(-0.000209853 -0.000796365 -0.00117479)
(-0.000571292 -0.00095023 -0.000571277)
(-0.00106478 -0.00109457 -8.81466e-07)
(-0.00156553 -0.00119467 0.000499787)
(-0.00204755 -0.0012597 0.000925136)
(-0.00248424 -0.00141335 0.00138628)
(-0.00288541 -0.00184354 0.00201122)
(-0.00337274 -0.00260196 0.00281716)
(-0.00386071 -0.00316056 0.00347584)
(-0.00340367 -0.00297164 0.00376138)
(-0.00195012 -0.00218241 0.00372485)
(-0.000388579 -0.00219458 0.00313329)
(0.00049028 -0.00217662 0.00228548)
(0.00102886 -0.00222393 0.00159218)
(0.00153738 -0.00227427 0.00107566)
(0.00179096 -0.0021215 0.000691059)
(0.00166806 -0.00173541 0.000375376)
(0.00119824 -0.00149719 -2.26032e-05)
(0.000455542 -0.00188943 -0.000352575)
(0.00164075 0.00235538 0.00361453)
(0.00265555 0.00154522 0.00334393)
(0.00233348 0.000819377 0.00233349)
(0.000721495 1.73094e-05 0.00122999)
(-0.0013615 -0.000763777 0.000304048)
(-0.00294244 -0.00126581 -0.000194828)
(-0.00392905 -0.00162535 -0.000359798)
(-0.00445452 -0.00228069 -0.000137507)
(-0.00475841 -0.00351867 0.000544963)
(-0.0046956 -0.00513963 0.00119215)
(-0.00400126 -0.00625094 0.00144295)
(-0.00258908 -0.0061488 0.00128889)
(-0.00080917 -0.00530835 0.000845439)
(0.000819619 -0.00442801 0.000320361)
(0.00195683 -0.00379815 2.7536e-05)
(0.0024659 -0.00325592 -1.30983e-06)
(0.00239792 -0.0026612 0.000121292)
(0.0018806 -0.00170852 0.000355399)
(0.0010665 -0.000374637 0.000607428)
(0.000294876 0.000942871 0.000750698)
(0.00370487 -0.00113883 0.0103232)
(0.00725714 0.000955648 0.0104767)
(0.00922564 0.00292465 0.00922566)
(0.00879192 0.00370221 0.00720845)
(0.00631852 0.00312223 0.00493169)
(0.00280562 0.00146879 0.00254587)
(-0.000774686 -0.000712824 5.62781e-05)
(-0.00257322 -0.00246044 -0.000888971)
(-0.00322968 -0.00425515 -0.000769931)
(-0.00327354 -0.00631324 -0.000345631)
(-0.00298061 -0.00785902 -5.72566e-05)
(-0.00221102 -0.00816239 7.09525e-05)
(-0.00116391 -0.00734376 0.000285362)
(-0.000327312 -0.00602405 0.000709714)
(-0.000294788 -0.00443225 0.00137697)
(-0.00151458 -0.00244535 0.00258867)
(-0.00367061 -0.000201769 0.00449271)
(-0.00527031 0.00182442 0.00672235)
(-0.00482385 0.00300164 0.00850903)
(-0.00270257 0.00350016 0.009228)
(0.00370445 -0.0101849 0.00783714)
(0.00856432 -0.0062441 0.0106539)
(0.0118115 -0.00205307 0.0118115)
(0.0135476 0.00199514 0.0114313)
(0.0132872 0.00436357 0.0100089)
(0.0113066 0.00481207 0.00795221)
(0.00812138 0.00323322 0.00545641)
(0.00414204 -0.000139924 0.00275497)
(0.000873807 -0.00371523 0.000718475)
(-0.000640665 -0.00657958 0.000234547)
(-0.00139516 -0.00845671 0.000385062)
(-0.00184346 -0.00890939 0.000969482)
(-0.00258245 -0.00771399 0.00224054)
(-0.00440347 -0.00522632 0.00408197)
(-0.00746627 -0.00203335 0.00624326)
(-0.0107342 0.000511094 0.00855887)
(-0.0124565 0.000818596 0.010562)
(-0.0116465 -0.00100265 0.0115955)
(-0.00857597 -0.00365264 0.0112259)
(-0.00392648 -0.00628833 0.00933802)
(0.00285548 -0.0168338 0.00210608)
(0.00819611 -0.01188 0.0072887)
(0.0103226 -0.00697327 0.0103226)
(0.0118087 -0.0018584 0.011691)
(0.0124054 0.00247058 0.0119014)
(0.0118983 0.00490355 0.0111066)
(0.0104071 0.00528972 0.00969507)
(0.00807103 0.00380232 0.00794207)
(0.00530184 0.000614236 0.00599032)
(0.00272467 -0.00326793 0.0043985)
(0.000549771 -0.0061158 0.0038486)
(-0.00172797 -0.00665276 0.00443464)
(-0.00460637 -0.00461063 0.00617756)
(-0.00822622 -0.00146204 0.00846981)
(-0.0113665 0.00054611 0.0105763)
(-0.0129911 9.71185e-05 0.0117209)
(-0.0128556 -0.00248453 0.0116938)
(-0.0111437 -0.00617068 0.0104563)
(-0.00843544 -0.00977285 0.00756552)
(-0.0031697 -0.0133552 0.00271162)
(0.00148047 -0.0210837 -0.0029875)
(0.00733728 -0.0150368 0.0036169)
(0.00773349 -0.00976196 0.00773344)
(0.00830851 -0.00452355 0.00998612)
(0.00833406 -0.000161386 0.0111239)
(0.00823256 0.00273147 0.0112643)
(0.00783954 0.00376784 0.0107293)
(0.00712321 0.00288861 0.00998763)
(0.00596469 0.000311558 0.00947223)
(0.0040001 -0.00268325 0.00925093)
(0.00143646 -0.0046952 0.00882375)
(-0.00146064 -0.00498858 0.0087297)
(-0.00446736 -0.00347331 0.00967797)
(-0.00724099 -0.00148999 0.0108697)
(-0.00907694 -0.000690667 0.0115478)
(-0.00987813 -0.00207242 0.0113377)
(-0.00985811 -0.00523397 0.0100866)
(-0.00893724 -0.00931616 0.00757765)
(-0.00779998 -0.0132784 0.00317101)
(-0.00195712 -0.017845 -0.00351063)
(-0.000769817 -0.0227035 -0.00739583)
(0.00493561 -0.0155354 -0.000907054)
(0.00329574 -0.0102066 0.00329568)
(0.00315667 -0.00515939 0.00530737)
(0.0028273 -0.000795177 0.00608511)
(0.00325141 0.00254624 0.00645188)
(0.00392118 0.00440114 0.00653907)
(0.00426598 0.00469001 0.00631745)
(0.00414886 0.00373014 0.00633743)
(0.00304897 0.00228139 0.00698452)
(0.0010841 0.000737044 0.00692414)
(-0.00118782 4.28904e-05 0.00549221)
(-0.0028368 0.000227142 0.00501225)
(-0.00392264 0.000340363 0.00547094)
(-0.00440661 -0.00050411 0.00608014)
(-0.00470769 -0.00274881 0.00617666)
(-0.00508481 -0.00611112 0.00529504)
(-0.00498855 -0.0101004 0.00290076)
(-0.00576565 -0.0140865 -0.00173601)
(0.000165876 -0.0200295 -0.00838992)
(-0.0044787 -0.0195374 -0.0123723)
(-0.00171576 -0.0135132 -0.00767678)
(-0.00503343 -0.00965726 -0.00503349)
(-0.00530484 -0.00733145 -0.00419591)
(-0.0050851 -0.0058349 -0.0045027)
(-0.00388147 -0.00494393 -0.00522557)
(-0.00202231 -0.00463853 -0.00580046)
(3.62077e-05 -0.00497405 -0.0058752)
(0.00164446 -0.00590029 -0.00510098)
(0.00183122 -0.006355 -0.0025196)
(0.0012274 -0.00730108 -0.00230421)
(0.000890533 -0.00784254 -0.0053998)
(0.00134301 -0.00745807 -0.00652322)
(0.00200959 -0.00697899 -0.00617654)
(0.00278794 -0.00675009 -0.00527625)
(0.00332892 -0.00702405 -0.00441368)
(0.00324992 -0.00794143 -0.00421849)
(0.00313321 -0.0096539 -0.00530919)
(0.000406816 -0.012678 -0.00830916)
(0.00367352 -0.0177807 -0.0132678)
(-0.0117112 -0.0113878 -0.0192818)
(-0.0168912 -0.00582307 -0.0201878)
(-0.0227685 -0.00274581 -0.0227685)
(-0.0247214 -0.00102725 -0.0260723)
(-0.0248009 0.000215856 -0.0297599)
(-0.0231747 0.00126913 -0.0335349)
(-0.0201138 0.0023494 -0.0371734)
(-0.0156835 0.00361871 -0.0403109)
(-0.00981353 0.00523172 -0.0421345)
(-0.00414701 0.00733288 -0.0411119)
(0.00605099 0.00733858 -0.0414746)
(0.0114267 0.00525467 -0.0425572)
(0.0166476 0.00350953 -0.0409597)
(0.0202692 0.0020354 -0.0378972)
(0.0224718 0.000751644 -0.0340818)
(0.0233524 -0.000394475 -0.0300364)
(0.0227648 -0.0016 -0.0261703)
(0.0206551 -0.00311623 -0.0227939)
(0.0151245 -0.00579794 -0.0202772)
(0.0104662 -0.0105988 -0.0196466)
(0.000809138 -0.00235531 0.000691317)
(0.00165181 -0.00203583 0.0015287)
(0.00253956 -0.00189551 0.00236922)
(0.00324082 -0.00175845 0.00324085)
(0.00373115 -0.00156049 0.00412163)
(0.00390911 -0.0013108 0.00500618)
(0.00372106 -0.00111261 0.00591191)
(0.00325597 -0.00115624 0.00684651)
(0.00286754 -0.00152306 0.00777691)
(0.00264357 -0.00171502 0.00861578)
(0.0027621 -0.000794276 0.00904783)
(0.000482224 0.000768872 0.00912773)
(-0.00117205 -0.000236346 0.00871973)
(-0.00188835 -0.000842295 0.00782441)
(-0.0022973 -0.00109172 0.00692098)
(-0.00233616 -0.00133952 0.00615936)
(-0.00211325 -0.00158482 0.0055594)
(-0.00172787 -0.00178126 0.00510758)
(-0.0012184 -0.00199159 0.00479992)
(-0.000633006 -0.00231344 0.00466741)
(4.55484e-05 -0.0013886 -0.00357256)
(3.13298e-05 -0.00112498 -0.00210781)
(-9.03603e-07 -0.00109457 -0.00106476)
(-0.000169309 -0.00106624 -0.000169279)
(-0.000443302 -0.000972765 0.000612515)
(-0.00082988 -0.000816771 0.00134338)
(-0.00134687 -0.000775967 0.00213314)
(-0.0019865 -0.00119373 0.00311812)
(-0.00274702 -0.00211664 0.00431671)
(-0.00356768 -0.00291797 0.00536778)
(-0.00341232 -0.00289318 0.00581993)
(-0.00220954 -0.00215123 0.00566197)
(-0.000822731 -0.00208231 0.00470955)
(-9.97529e-05 -0.00192205 0.00348987)
(0.000360137 -0.0018587 0.00249122)
(0.000762037 -0.00187811 0.00172851)
(0.000982195 -0.00185392 0.00112734)
(0.000917588 -0.00165829 0.000600434)
(0.000601475 -0.00149933 4.53357e-05)
(9.7027e-05 -0.00169894 -0.000607302)
(0.000884097 0.00129113 0.000167569)
(0.001428 0.000625684 0.000997187)
(0.00122997 1.73101e-05 0.000721509)
(0.000279015 -0.000468407 0.000279042)
(-0.000918818 -0.000737643 -2.06879e-05)
(-0.0019284 -0.000785638 -8.65009e-05)
(-0.00270901 -0.00088397 6.18043e-05)
(-0.00334156 -0.00148865 0.000586196)
(-0.00394187 -0.00282009 0.00155432)
(-0.00427698 -0.00467811 0.00242627)
(-0.00398037 -0.00593691 0.00270494)
(-0.00288071 -0.005819 0.0023729)
(-0.00132946 -0.00491353 0.0016231)
(0.00012661 -0.00397716 0.000813574)
(0.00123654 -0.00334735 0.000256895)
(0.00180968 -0.00279976 -2.53651e-05)
(0.00192607 -0.00234994 -0.000191678)
(0.00170946 -0.00183773 -0.000427423)
(0.00129042 -0.00121817 -0.000927299)
(0.000459697 -0.00067562 -0.00206188)
(0.00314514 0.00328068 0.00977984)
(0.00572524 0.00357704 0.00999279)
(0.00720842 0.00370221 0.00879193)
(0.006775 0.00332165 0.00677501)
(0.00483982 0.00234355 0.00452113)
(0.00225425 0.00101674 0.00234128)
(-0.000190077 -0.000405262 0.000444583)
(-0.00159559 -0.00173846 -0.000293668)
(-0.00233384 -0.00346767 -8.63075e-05)
(-0.00277368 -0.00572542 0.000458654)
(-0.00291698 -0.00741205 0.000731458)
(-0.00247843 -0.00772503 0.000712595)
(-0.00159773 -0.0068672 0.000673257)
(-0.000749252 -0.00556954 0.000847117)
(-0.000408911 -0.00416484 0.00129143)
(-0.00090459 -0.00250569 0.00215344)
(-0.00216166 -0.000611965 0.00369403)
(-0.00334258 0.00140897 0.00573001)
(-0.00312193 0.00329434 0.00729792)
(-0.00186595 0.00503794 0.00772212)
(0.00400054 -0.00364197 0.00924268)
(0.00840129 -0.000592368 0.0124338)
(0.0114312 0.00199515 0.0135476)
(0.0128394 0.00399026 0.0128394)
(0.012469 0.00492421 0.011021)
(0.0106222 0.00451245 0.00858849)
(0.0077355 0.00260213 0.00579943)
(0.00430265 -0.000393715 0.00300022)
(0.00153406 -0.00332955 0.0011582)
(-0.000162947 -0.00607113 0.00073638)
(-0.00130013 -0.0080367 0.000870129)
(-0.00203918 -0.00856466 0.00140611)
(-0.00278615 -0.00745888 0.0025316)
(-0.00423888 -0.00522363 0.00420958)
(-0.00665001 -0.00223525 0.00639214)
(-0.00943488 0.000700609 0.00903629)
(-0.0110297 0.00215586 0.011453)
(-0.0104448 0.0019171 0.0128592)
(-0.00781484 0.000785138 0.012727)
(-0.00394006 -0.000744316 0.0108067)
(0.00331259 -0.0106101 0.00212831)
(0.00902522 -0.00546334 0.0081036)
(0.0116911 -0.00185838 0.0118087)
(0.013475 0.00170432 0.013475)
(0.0140587 0.00437061 0.0134927)
(0.01345 0.00562275 0.0124075)
(0.0118046 0.00529659 0.0106496)
(0.00927491 0.00350781 0.00850681)
(0.00623832 0.000358767 0.00618702)
(0.00326688 -0.00332744 0.00433287)
(0.000576325 -0.00608694 0.00369666)
(-0.00218652 -0.00667275 0.00446611)
(-0.00530434 -0.00454597 0.00648821)
(-0.00899823 -0.00118425 0.00909178)
(-0.0122896 0.00133314 0.0116316)
(-0.0140055 0.00178488 0.0130922)
(-0.0138691 0.000453327 0.0132709)
(-0.0120739 -0.00188733 0.0118369)
(-0.00906757 -0.00428399 0.00840475)
(-0.00369639 -0.00773305 0.00285871)
(0.00152272 -0.0165707 -0.00395777)
(0.00848289 -0.00900178 0.00330843)
(0.00998616 -0.00452352 0.00830845)
(0.0112777 -0.000663172 0.0112777)
(0.0116427 0.00251085 0.0126048)
(0.0113876 0.00445517 0.0126463)
(0.0106187 0.00482783 0.01191)
(0.0093545 0.00359288 0.0108109)
(0.00758282 0.000945273 0.00974366)
(0.00498637 -0.00218443 0.00893854)
(0.00167782 -0.00471189 0.00834882)
(-0.00221118 -0.005236 0.00872863)
(-0.00611032 -0.00335055 0.0104095)
(-0.00954686 -0.000554029 0.0120626)
(-0.0117212 0.000856099 0.0129643)
(-0.0126948 0.000246861 0.0128958)
(-0.0123454 -0.00177068 0.0112624)
(-0.0108522 -0.00458931 0.00797104)
(-0.00883238 -0.00777369 0.00266253)
(-0.00213213 -0.0135577 -0.00466651)
(-0.00124285 -0.0203235 -0.00897984)
(0.00575287 -0.0110691 -0.00191063)
(0.00530742 -0.00515937 0.00315659)
(0.00621312 -3.73638e-05 0.00621305)
(0.00670926 0.00384987 0.00795958)
(0.00684399 0.00602315 0.00841667)
(0.00687198 0.00692443 0.0082942)
(0.00661384 0.00672423 0.00795758)
(0.00587225 0.00565573 0.00786374)
(0.00397781 0.0043543 0.0083464)
(0.000849938 0.00320895 0.00818272)
(-0.00245183 0.00292639 0.00713712)
(-0.00478914 0.00346334 0.00710342)
(-0.00652839 0.00397793 0.00785785)
(-0.00754379 0.00381795 0.00841586)
(-0.00784188 0.0020831 0.00789987)
(-0.00762309 -0.00123859 0.00594951)
(-0.00671319 -0.0053303 0.00247969)
(-0.00646686 -0.0098877 -0.00299996)
(0.000537022 -0.0177564 -0.0101062)
(-0.00538726 -0.0189855 -0.0142379)
(-0.00169016 -0.0118906 -0.00908146)
(-0.00419586 -0.00733144 -0.00530491)
(-0.0035552 -0.00447341 -0.00355526)
(-0.00262645 -0.00247553 -0.00298781)
(-0.00115621 -0.00111524 -0.00303032)
(0.000352319 -0.000729381 -0.00380801)
(0.00177393 -0.00116275 -0.00460418)
(0.00273542 -0.00176466 -0.00481197)
(0.00266441 -0.00116593 -0.003645)
(0.00206443 -0.00203336 -0.00371608)
(0.000859406 -0.00412844 -0.00546745)
(3.0963e-06 -0.00425306 -0.00553879)
(-0.000378378 -0.00377255 -0.00437189)
(0.000183243 -0.00347271 -0.0035452)
(0.00104076 -0.00393303 -0.00330257)
(0.00145165 -0.00518584 -0.00367427)
(0.002333 -0.00736228 -0.00583219)
(0.000428168 -0.0110745 -0.00995521)
(0.00450699 -0.0172997 -0.0151598)
(-0.0135903 -0.0108588 -0.0210329)
(-0.0195309 -0.0044738 -0.0220584)
(-0.0260722 -0.00102724 -0.0247215)
(-0.0282733 0.000925713 -0.0282733)
(-0.0283512 0.0024092 -0.0322248)
(-0.0266086 0.0037006 -0.0363159)
(-0.0234549 0.00506693 -0.0405137)
(-0.0188469 0.00670418 -0.0444771)
(-0.0123929 0.00877443 -0.0471624)
(-0.00556339 0.0114122 -0.046541)
(0.00745242 0.0116128 -0.0472317)
(0.0141546 0.00903625 -0.0483579)
(0.0200582 0.00685803 -0.0460725)
(0.0238629 0.00501593 -0.0421706)
(0.0260389 0.0033706 -0.0375601)
(0.0268845 0.00190497 -0.0329481)
(0.0262258 0.00042407 -0.0286732)
(0.0238741 -0.00136102 -0.0249983)
(0.0177364 -0.00446299 -0.022334)
(0.0122914 -0.0101232 -0.0214222)
(0.000945366 -0.00255021 0.00101774)
(0.00212334 -0.00207087 0.00189738)
(0.00324403 -0.00179817 0.00278593)