/*--------------------------------*- C++ -*----------------------------------*\
| =========                 |                                                 |
| \\      /  F ield         | OpenFOAM: The Open Source CFD Toolbox           |
|  \\    /   O peration     | Version:  1.7.1                                 |
|   \\  /    A nd           | Web:      www.OpenFOAM.com                      |
|    \\/     M anipulation  |                                                 |
\*---------------------------------------------------------------------------*/
FoamFile
{
    version     2.0;
    format      ascii;
    class       volScalarField;
    location    "400";
    object      epsilon;
}
// * * * * * * * * * * * * * * * * * * * * * * * * * * * * * * * * * * * * * //

dimensions      [0 2 -3 0 0 0 0];

internalField   nonuniform List<scalar> 
4000
(
2.59583e-07
3.04622e-07
3.29833e-07
3.44977e-07
3.60948e-07
3.79054e-07
3.92368e-07
4.02268e-07
4.0985e-07
4.15005e-07
4.16787e-07
4.14401e-07
3.97394e-07
3.67104e-07
3.34866e-07
3.14334e-07
3.04845e-07
3.05525e-07
3.09563e-07
3.02634e-07
2.70738e-07
3.40161e-07
3.82226e-07
4.05199e-07
4.20203e-07
4.30791e-07
4.46096e-07
4.74379e-07
5.08299e-07
5.43738e-07
5.71821e-07
5.83781e-07
5.60431e-07
5.07065e-07
4.50426e-07
4.14951e-07
3.89704e-07
3.72814e-07
3.58359e-07
3.16818e-07
2.80255e-07
3.42943e-07
3.87102e-07
4.15162e-07
4.34254e-07
4.53378e-07
4.79136e-07
5.15063e-07
5.73711e-07
6.38907e-07
6.91595e-07
7.14981e-07
6.84862e-07
6.02175e-07
5.00216e-07
4.30662e-07
4.04241e-07
3.901e-07
3.7567e-07
3.33375e-07
3.00345e-07
3.42795e-07
3.74162e-07
3.94895e-07
4.11022e-07
4.54636e-07
5.41718e-07
6.4993e-07
7.53037e-07
8.42476e-07
9.13657e-07
9.38669e-07
8.8754e-07
7.54861e-07
5.67436e-07
4.33418e-07
3.93259e-07
3.85406e-07
3.77638e-07
3.50245e-07
3.46582e-07
3.8029e-07
4.19109e-07
4.80426e-07
5.95241e-07
7.71009e-07
9.86202e-07
1.18641e-06
1.31181e-06
1.38244e-06
1.43045e-06
1.41469e-06
1.30091e-06
1.08502e-06
8.09853e-07
5.4948e-07
4.01034e-07
3.86179e-07
3.8479e-07
3.6939e-07
6.22115e-07
7.01717e-07
8.42289e-07
1.05991e-06
1.36611e-06
1.74583e-06
2.12327e-06
2.37554e-06
2.41774e-06
2.37944e-06
2.35224e-06
2.24492e-06
2.02629e-06
1.71331e-06
1.34145e-06
9.69039e-07
6.34712e-07
4.23747e-07
3.9449e-07
3.8531e-07
9.42523e-07
1.15113e-06
1.50717e-06
1.99378e-06
2.58708e-06
3.21909e-06
3.7483e-06
4.01174e-06
3.91825e-06
3.75502e-06
3.65496e-06
3.43105e-06
3.07304e-06
2.6242e-06
2.12979e-06
1.62367e-06
1.12784e-06
7.08362e-07
4.45579e-07
3.94909e-07
1.19916e-06
1.63478e-06
2.33638e-06
3.17348e-06
4.08328e-06
4.9661e-06
5.66164e-06
6.0042e-06
5.83087e-06
5.55059e-06
5.38101e-06
5.00925e-06
4.45892e-06
3.80566e-06
3.10475e-06
2.40641e-06
1.7484e-06
1.16552e-06
6.94742e-07
4.53121e-07
1.53587e-06
2.29917e-06
3.36443e-06
4.57505e-06
5.8752e-06
7.14284e-06
8.16245e-06
8.6741e-06
8.53204e-06
8.13663e-06
7.83817e-06
7.22665e-06
6.36895e-06
5.37726e-06
4.34726e-06
3.35143e-06
2.43611e-06
1.6451e-06
1.01453e-06
6.18625e-07
2.00905e-06
3.23328e-06
4.74232e-06
6.29363e-06
7.78773e-06
9.11715e-06
1.01753e-05
1.08553e-05
1.10401e-05
1.08176e-05
1.02815e-05
9.39304e-06
8.29009e-06
7.0649e-06
5.78598e-06
4.51078e-06
3.29314e-06
2.19852e-06
1.31779e-06
7.5497e-07
3.04623e-07
3.86759e-07
4.33409e-07
4.60823e-07
4.88155e-07
5.31237e-07
6.04668e-07
6.75804e-07
7.29966e-07
7.69591e-07
7.95949e-07
8.03415e-07
7.64066e-07
6.69754e-07
5.63509e-07
4.90888e-07
4.51449e-07
4.39134e-07
4.2276e-07
3.6542e-07
3.40162e-07
3.70012e-07
4.10652e-07
4.34389e-07
4.5825e-07
4.88216e-07
5.22396e-07
5.54627e-07
5.83221e-07
6.10121e-07
6.32764e-07
6.42367e-07
6.24843e-07
5.77166e-07
5.12657e-07
4.58364e-07
4.24154e-07
4.14827e-07
4.07152e-07
3.93793e-07
3.42943e-07
3.426e-07
3.94072e-07
4.32089e-07
4.65564e-07
5.02191e-07
5.40231e-07
5.70666e-07
6.00178e-07
6.34143e-07
6.68826e-07
6.91275e-07
6.82102e-07
6.33993e-07
5.58371e-07
4.77185e-07
4.15357e-07
3.88893e-07
3.80004e-07
4.14399e-07
3.42795e-07
3.34833e-07
3.85584e-07
4.35305e-07
4.81972e-07
5.32218e-07
5.81542e-07
6.29087e-07
6.80436e-07
7.39882e-07
8.00259e-07
8.35409e-07
8.14736e-07
7.28282e-07
6.05909e-07
5.01894e-07
4.27378e-07
3.82709e-07
3.63836e-07
4.27908e-07
3.8029e-07
4.53298e-07
4.92002e-07
5.34127e-07
5.94742e-07
6.80094e-07
7.8401e-07
8.90467e-07
9.81668e-07
1.06158e-06
1.13024e-06
1.15214e-06
1.08682e-06
9.37679e-07
7.55667e-07
5.89681e-07
4.77368e-07
4.14633e-07
3.8167e-07
4.3659e-07
7.01717e-07
8.71352e-07
9.43572e-07
1.0451e-06
1.20264e-06
1.40404e-06
1.59847e-06
1.72598e-06
1.76319e-06
1.766e-06
1.77135e-06
1.72433e-06
1.58325e-06
1.37215e-06
1.12849e-06
8.87125e-07
6.69889e-07
5.10948e-07
4.36572e-07
4.40132e-07
1.15113e-06
1.21591e-06
1.45569e-06
1.82944e-06
2.29973e-06
2.76913e-06
3.09628e-06
3.18556e-06
3.05521e-06
2.89426e-06
2.80921e-06
2.68219e-06
2.46042e-06
2.15085e-06
1.78353e-06
1.39947e-06
1.03992e-06
7.47895e-07
5.39132e-07
4.40533e-07
1.63478e-06
1.75062e-06
2.31681e-06
3.11229e-06
4.04221e-06
4.89011e-06
5.40455e-06
5.43626e-06
5.08123e-06
4.73942e-06
4.63035e-06
4.44257e-06
4.07588e-06
3.53718e-06
2.89525e-06
2.23368e-06
1.62193e-06
1.09787e-06
6.92165e-07
4.82118e-07
2.29917e-06
2.91953e-06
4.15365e-06
5.66561e-06
7.33441e-06
8.81612e-06
9.74567e-06
9.87336e-06
9.37115e-06
8.81063e-06
8.60663e-06
8.18431e-06
7.39428e-06
6.3065e-06
5.0612e-06
3.82774e-06
2.72163e-06
1.76461e-06
9.88227e-07
6.04275e-07
3.23328e-06
4.9786e-06
7.14095e-06
9.42425e-06
1.16853e-05
1.3744e-05
1.54242e-05
1.65676e-05
1.70816e-05
1.69106e-05
1.58299e-05
1.4283e-05
1.24463e-05
1.04588e-05
8.42675e-06
6.44094e-06
4.57631e-06
2.90581e-06
1.55284e-06
7.6513e-07
3.29834e-07
4.3341e-07
4.98326e-07
5.40446e-07
5.80576e-07
6.33997e-07
7.27296e-07
8.5817e-07
9.69975e-07
1.05308e-06
1.10826e-06
1.12247e-06
1.04553e-06
8.6387e-07
7.01904e-07
6.0643e-07
5.69378e-07
5.47794e-07
4.95652e-07
3.907e-07
3.82227e-07
4.10652e-07
4.67764e-07
5.06997e-07
5.45418e-07
5.9032e-07
6.39092e-07
6.84307e-07
7.21441e-07
7.55731e-07
7.874e-07
8.04837e-07
7.91507e-07
7.43255e-07
6.66814e-07
5.87812e-07
5.43162e-07
5.20981e-07
4.77567e-07
4.44254e-07
3.87103e-07
3.94072e-07
4.68333e-07
5.24454e-07
5.7049e-07
6.17077e-07
6.63392e-07
6.94701e-07
7.22316e-07
7.57861e-07
7.98774e-07
8.2795e-07
8.24178e-07
7.83451e-07
7.14279e-07
6.16515e-07
5.29902e-07
4.76224e-07
4.38022e-07
4.66347e-07
3.74162e-07
3.85584e-07
4.65234e-07
5.39536e-07
6.01857e-07
6.53805e-07
6.88633e-07
7.12924e-07
7.49106e-07
8.10699e-07
8.85496e-07
9.35451e-07
9.16172e-07
8.2466e-07
7.17948e-07
6.28384e-07
5.33753e-07
4.5595e-07
4.05391e-07
4.69907e-07
4.19109e-07
4.92002e-07
5.41011e-07
5.88484e-07
6.35232e-07
6.84367e-07
7.38611e-07
8.03224e-07
8.87597e-07
1.00082e-06
1.12334e-06
1.1934e-06
1.13107e-06
9.56465e-07
7.80997e-07
6.57277e-07
5.66786e-07
4.75403e-07
4.07384e-07
4.66644e-07
8.42289e-07
9.43572e-07
9.37762e-07
9.4458e-07
9.85286e-07
1.05558e-06
1.14143e-06
1.23396e-06
1.33914e-06
1.47389e-06
1.61682e-06
1.67413e-06
1.53356e-06
1.27345e-06
1.02501e-06
8.30674e-07
6.80845e-07
5.58629e-07
4.67882e-07
4.70902e-07
1.50717e-06
1.45569e-06
1.51825e-06
1.70986e-06
1.97867e-06
2.23838e-06
2.40213e-06
2.44897e-06
2.43347e-06
2.46128e-06
2.55756e-06
2.57628e-06
2.37633e-06
2.01954e-06
1.63204e-06
1.28064e-06
9.86878e-07
7.58286e-07
5.90181e-07
4.83305e-07
2.33638e-06
2.31681e-06
2.75184e-06
3.52929e-06
4.48223e-06
5.25905e-06
5.56711e-06
5.35162e-06
4.86281e-06
4.56026e-06
4.62319e-06
4.68967e-06
4.47336e-06
3.91233e-06
3.15447e-06
2.38361e-06
1.71274e-06
1.16181e-06
7.64882e-07
5.49733e-07
3.36443e-06
4.15365e-06
5.8041e-06
8.17187e-06
1.07927e-05
1.27838e-05
1.36288e-05
1.31671e-05
1.22305e-05
1.15024e-05
1.11424e-05
1.09499e-05
1.02168e-05
8.87758e-06
7.06922e-06
5.17588e-06
3.54152e-06
2.20702e-06
1.21221e-06
6.84659e-07
4.74232e-06
7.14095e-06
9.96007e-06
1.29467e-05
1.59315e-05
1.86651e-05
2.09399e-05
2.25683e-05
2.35178e-05
2.35331e-05
2.17979e-05
1.95321e-05
1.69334e-05
1.41788e-05
1.13939e-05
8.70778e-06
6.22357e-06
4.01242e-06
2.17821e-06
9.72481e-07
3.44979e-07
4.60825e-07
5.40447e-07
5.97685e-07
6.52359e-07
7.26515e-07
8.38528e-07
1.02612e-06
1.20516e-06
1.33836e-06
1.41786e-06
1.4195e-06
1.27067e-06
9.72253e-07
7.98878e-07
7.28389e-07
6.96783e-07
6.45868e-07
5.54328e-07
4.09552e-07
4.05202e-07
4.34391e-07
5.06999e-07
5.63409e-07
6.20637e-07
6.9055e-07
7.6752e-07
8.3896e-07
8.95698e-07
9.44403e-07
9.83664e-07
1.00018e-06
9.79474e-07
9.18897e-07
8.21032e-07
7.35446e-07
6.88676e-07
6.3558e-07
5.37714e-07
4.92808e-07
4.15164e-07
4.3209e-07
5.24455e-07
6.00339e-07
6.67414e-07
7.39024e-07
8.12905e-07
8.67936e-07
9.19254e-07
9.73455e-07
1.01651e-06
1.02937e-06
1.00364e-06
9.46841e-07
8.62688e-07
7.48791e-07
6.49146e-07
5.74731e-07
5.07275e-07
5.32678e-07
3.94895e-07
4.35306e-07
5.39536e-07
6.32858e-07
7.08645e-07
7.72321e-07
8.22681e-07
8.73061e-07
9.46065e-07
1.04278e-06
1.12502e-06
1.14671e-06
1.08129e-06
9.53024e-07
8.352e-07
7.4144e-07
6.31682e-07
5.323e-07
4.5664e-07
5.12364e-07
4.80426e-07
5.34127e-07
5.88484e-07
6.50377e-07
7.06313e-07
7.56774e-07
8.12337e-07
8.9343e-07
1.02746e-06
1.21068e-06
1.37259e-06
1.42369e-06
1.29528e-06
1.05579e-06
8.526e-07
7.35866e-07
6.46657e-07
5.33007e-07
4.40271e-07
4.90514e-07
1.05992e-06
1.0451e-06
9.44581e-07
8.79431e-07
8.596e-07
8.80311e-07
9.4463e-07
1.07588e-06
1.30345e-06
1.60597e-06
1.86444e-06
1.93705e-06
1.71625e-06
1.3479e-06
1.03541e-06
8.35294e-07
7.10475e-07
6.01917e-07
5.00403e-07
4.94727e-07
1.99378e-06
1.82944e-06
1.70986e-06
1.71485e-06
1.77936e-06
1.85222e-06
1.97916e-06
2.16753e-06
2.40188e-06
2.66995e-06
2.87872e-06
2.92181e-06
2.64488e-06
2.15534e-06
1.66528e-06
1.27768e-06
9.94718e-07
7.94215e-07
6.46791e-07
5.39212e-07
3.17348e-06
3.11229e-06
3.52929e-06
4.31684e-06
5.18568e-06
5.79031e-06
5.98436e-06
5.99274e-06
5.83153e-06
5.67538e-06
5.52871e-06
5.36723e-06
5.22805e-06
4.63103e-06
3.70387e-06
2.74871e-06
1.94165e-06
1.32889e-06
9.07558e-07
6.64994e-07
4.57505e-06
5.66561e-06
8.17187e-06
1.16535e-05
1.50315e-05
1.70543e-05
1.74279e-05
1.6307e-05
1.51153e-05
1.42738e-05
1.39808e-05
1.39504e-05
1.34075e-05
1.20783e-05
9.7972e-06
7.11433e-06
4.711e-06
2.86401e-06
1.60459e-06
8.87944e-07
6.29363e-06
9.42425e-06
1.29467e-05
1.66432e-05
2.03254e-05
2.37174e-05
2.66867e-05
2.89762e-05
3.05376e-05
3.09373e-05
2.84022e-05
2.51977e-05
2.16838e-05
1.81093e-05
1.4547e-05
1.11505e-05
8.05549e-06
5.34343e-06
3.07408e-06
1.4168e-06
3.6095e-07
4.88158e-07
5.80579e-07
6.5236e-07
7.15641e-07
8.00763e-07
9.50728e-07
1.20871e-06
1.46718e-06
1.65498e-06
1.74364e-06
1.70216e-06
1.46635e-06
1.05683e-06
9.42674e-07
8.99742e-07
8.37791e-07
7.48821e-07
6.27404e-07
4.26675e-07
4.20207e-07
4.58253e-07
5.45421e-07
6.20638e-07
6.98515e-07
7.99685e-07
9.2789e-07
1.05352e-06
1.14466e-06
1.20739e-06
1.23673e-06
1.22775e-06
1.18062e-06
1.09849e-06
9.95277e-07
9.20135e-07
8.49208e-07
7.33544e-07
5.74252e-07
5.307e-07
4.34256e-07
4.65567e-07
5.70492e-07
6.67415e-07
7.68071e-07
8.9339e-07
1.04265e-06
1.17818e-06
1.2939e-06
1.37163e-06
1.36827e-06
1.29431e-06
1.19631e-06
1.09895e-06
9.93934e-07
8.77272e-07
7.73465e-07
6.82098e-07
5.90017e-07
6.16657e-07
4.11022e-07
4.81973e-07
6.01858e-07
7.08646e-07
8.06692e-07
9.17703e-07
1.06287e-06
1.25186e-06
1.46458e-06
1.62824e-06
1.62711e-06
1.47312e-06
1.27166e-06
1.08171e-06
9.38723e-07
8.35187e-07
7.20221e-07
6.12418e-07
5.20599e-07
5.66346e-07
5.95242e-07
5.94743e-07
6.35233e-07
7.06313e-07
7.80861e-07
8.7257e-07
1.02546e-06
1.29151e-06
1.66136e-06
1.99694e-06
2.05852e-06
1.83238e-06
1.50275e-06
1.17874e-06
9.40165e-07
8.12305e-07
7.1656e-07
5.91999e-07
4.8314e-07
5.14611e-07
1.36611e-06
1.20264e-06
9.85287e-07
8.59601e-07
8.27978e-07
8.7929e-07
1.04875e-06
1.4193e-06
2.00742e-06
2.60258e-06
2.76652e-06
2.44855e-06
1.97429e-06
1.4873e-06
1.10505e-06
8.78123e-07
7.538e-07
6.47097e-07
5.41282e-07
5.23686e-07
2.58708e-06
2.29973e-06
1.97867e-06
1.77936e-06
1.66681e-06
1.81896e-06
2.18414e-06
2.76514e-06
3.53028e-06
4.17528e-06
4.16343e-06
3.58958e-06
3.02231e-06
2.38667e-06
1.78183e-06
1.33179e-06
1.03733e-06
8.49308e-07
7.18912e-07
6.25117e-07
4.08328e-06
4.04221e-06
4.48223e-06
5.18568e-06
5.87964e-06
6.63669e-06
7.28201e-06
7.59306e-06
7.83232e-06
7.8393e-06
7.34169e-06
6.61888e-06
6.03958e-06
5.3823e-06
4.33556e-06
3.1918e-06
2.23639e-06
1.55056e-06
1.09893e-06
8.39734e-07
5.8752e-06
7.33441e-06
1.07927e-05
1.50315e-05
1.85095e-05
1.98923e-05
1.96458e-05
1.85398e-05
1.76417e-05
1.69375e-05
1.62664e-05
1.60914e-05
1.61982e-05
1.51355e-05
1.26825e-05
9.35462e-06
6.10416e-06
3.6582e-06
2.09823e-06
1.2154e-06
7.78773e-06
1.16853e-05
1.59315e-05
2.03254e-05
2.47257e-05
2.89202e-05
3.26196e-05
3.58561e-05
3.85136e-05
3.97433e-05
3.59914e-05
3.14126e-05
2.68079e-05
2.22265e-05
1.7798e-05
1.36563e-05
9.93875e-06
6.74468e-06
4.08839e-06
2.04685e-06
3.79056e-07
5.31241e-07
6.34001e-07
7.26517e-07
8.00763e-07
8.63632e-07
1.00394e-06
1.3334e-06
1.67355e-06
1.93289e-06
2.0292e-06
1.94217e-06
1.6622e-06
1.29384e-06
1.1911e-06
1.1045e-06
9.91859e-07
8.70291e-07
6.92298e-07
4.36214e-07
4.30795e-07
4.88221e-07
5.90324e-07
6.90553e-07
7.99686e-07
9.44343e-07
1.14992e-06
1.35345e-06
1.48897e-06
1.54915e-06
1.54052e-06
1.48303e-06
1.39917e-06
1.29796e-06
1.1955e-06
1.10484e-06
9.65544e-07
7.78301e-07
5.88185e-07
5.58683e-07
4.53382e-07
5.02195e-07
6.1708e-07
7.39026e-07
8.93391e-07
1.12331e-06
1.43389e-06
1.73819e-06
1.98005e-06
2.06176e-06
1.89795e-06
1.63456e-06
1.41197e-06
1.24912e-06
1.11579e-06
9.97622e-07
8.87059e-07
7.78523e-07
6.59857e-07
6.85683e-07
4.54636e-07
5.32219e-07
6.53807e-07
7.72322e-07
9.17704e-07
1.16306e-06
1.58653e-06
2.14726e-06
2.69913e-06
2.94132e-06
2.55826e-06
1.95901e-06
1.50404e-06
1.21744e-06
1.03262e-06
9.13718e-07
7.98798e-07
6.90773e-07
5.91823e-07
6.28708e-07
7.71009e-07
6.80094e-07
6.84367e-07
7.56775e-07
8.72571e-07
1.10646e-06
1.62716e-06
2.5256e-06
3.57585e-06
4.16279e-06
3.55604e-06
2.49776e-06
1.76127e-06
1.31035e-06
1.03113e-06
8.82422e-07
7.78346e-07
6.52355e-07
5.32376e-07
5.3813e-07
1.74583e-06
1.40404e-06
1.05558e-06
8.80312e-07
8.79291e-07
1.08154e-06
1.70107e-06
2.97211e-06
4.69114e-06
5.81563e-06
4.92078e-06
3.30508e-06
2.26987e-06
1.633e-06
1.19608e-06
9.37833e-07
8.00592e-07
6.90416e-07
5.86194e-07
5.67103e-07
3.21909e-06
2.76913e-06
2.23838e-06
1.85222e-06
1.81896e-06
2.2465e-06
3.2225e-06
4.85183e-06
6.87668e-06
8.12792e-06
6.91935e-06
4.69569e-06
3.38425e-06
2.58413e-06
1.90622e-06
1.39862e-06
1.08594e-06
9.0685e-07
8.0045e-07
7.41426e-07
4.96609e-06
4.89011e-06
5.25905e-06
5.79031e-06
6.63669e-06
7.86796e-06
8.91104e-06
9.95669e-06
1.12349e-05
1.17818e-05
1.00802e-05
7.93919e-06
6.83113e-06
5.91665e-06
4.82741e-06
3.56598e-06
2.49551e-06
1.76139e-06
1.30144e-06
1.0633e-06
7.14283e-06
8.81611e-06
1.27838e-05
1.70543e-05
1.98923e-05
2.09571e-05
2.06741e-05
2.00907e-05
2.0236e-05
2.02697e-05
1.87761e-05
1.75337e-05
1.75653e-05
1.72251e-05
1.50003e-05
1.13477e-05
7.41653e-06
4.41097e-06
2.57454e-06
1.61541e-06
9.11714e-06
1.37439e-05
1.86651e-05
2.37174e-05
2.89202e-05
3.39009e-05
3.87598e-05
4.35956e-05
4.81266e-05
5.0886e-05
4.53314e-05
3.84277e-05
3.20992e-05
2.6374e-05
2.09727e-05
1.60271e-05
1.16807e-05
8.02611e-06
5.03423e-06
2.68783e-06
3.92369e-07
6.04672e-07
7.27299e-07
8.38531e-07
9.50728e-07
1.00394e-06
1.01276e-06
1.27715e-06
1.67093e-06
2.07542e-06
2.24575e-06
2.20957e-06
2.0159e-06
1.76131e-06
1.53563e-06
1.34278e-06
1.15643e-06
9.63402e-07
7.3196e-07
4.38095e-07
4.461e-07
5.224e-07
6.39096e-07
7.67523e-07
9.27892e-07
1.14992e-06
1.42247e-06
1.68665e-06
1.95421e-06
2.01845e-06
1.94853e-06
1.81992e-06
1.6791e-06
1.53236e-06
1.38349e-06
1.21144e-06
9.95523e-07
7.80124e-07
5.94379e-07
5.72967e-07
4.7914e-07
5.40234e-07
6.63395e-07
8.12909e-07
1.04265e-06
1.43389e-06
1.98975e-06
2.54436e-06
3.13731e-06
3.37592e-06
2.86283e-06
2.20096e-06
1.73323e-06
1.44604e-06
1.24513e-06
1.0964e-06
9.68009e-07
8.29318e-07
6.85146e-07
7.06799e-07
5.41718e-07
5.81543e-07
6.88635e-07
8.22683e-07
1.06287e-06
1.58653e-06
2.55082e-06
3.81941e-06
5.24951e-06
5.93841e-06
4.58364e-06
2.96969e-06
1.93042e-06
1.41183e-06
1.14404e-06
9.84427e-07
8.66976e-07
7.61429e-07
6.57887e-07
6.82886e-07
9.86201e-07
7.8401e-07
7.38611e-07
8.12338e-07
1.02546e-06
1.62716e-06
3.05679e-06
5.44584e-06
8.21109e-06
9.58786e-06
7.25911e-06
4.08745e-06
2.29303e-06
1.50554e-06
1.1364e-06
9.49809e-07
8.32577e-07
7.09579e-07
5.82457e-07
5.60919e-07
2.12327e-06
1.59847e-06
1.14143e-06
9.44631e-07
1.04875e-06
1.70107e-06
3.58997e-06
7.16183e-06
1.15011e-05
1.37053e-05
1.02627e-05
5.45991e-06
2.86217e-06
1.8163e-06
1.29656e-06
1.00297e-06
8.43965e-07
7.27518e-07
6.28729e-07
6.25518e-07
3.7483e-06
3.09628e-06
2.40213e-06
1.97917e-06
2.18414e-06
3.22251e-06
5.6016e-06
9.75985e-06
1.48075e-05
1.73161e-05
1.30306e-05
7.11037e-06
3.99144e-06
2.72173e-06
1.98447e-06
1.44723e-06
1.11965e-06
9.51334e-07
8.76036e-07
8.69428e-07
5.66164e-06
5.40455e-06
5.56711e-06
5.98436e-06
7.282e-06
8.91104e-06
1.07962e-05
1.3958e-05
1.79989e-05
2.0054e-05
1.59929e-05
1.00307e-05
7.33205e-06
6.17981e-06
4.98052e-06
3.72394e-06
2.61768e-06
1.8911e-06
1.4638e-06
1.28564e-06
8.16244e-06
9.74565e-06
1.36288e-05
1.74278e-05
1.96458e-05
2.06741e-05
2.10729e-05
2.23891e-05
2.49589e-05
2.65394e-05
2.33787e-05
1.913e-05
1.79131e-05
1.76817e-05
1.60754e-05
1.24544e-05
8.19688e-06
4.87898e-06
2.90564e-06
1.97224e-06
1.01753e-05
1.54242e-05
2.09398e-05
2.66867e-05
3.26196e-05
3.87598e-05
4.54214e-05
5.28326e-05
6.04371e-05
6.57343e-05
5.76556e-05
4.68167e-05
3.77015e-05
3.02666e-05
2.38203e-05
1.80093e-05
1.30492e-05
8.98557e-06
5.73619e-06
3.19563e-06
4.02269e-07
6.75807e-07
8.58173e-07
1.02612e-06
1.20871e-06
1.3334e-06
1.27715e-06
1.3082e-06
1.68578e-06
2.26374e-06
2.47535e-06
2.59225e-06
2.54997e-06
2.30511e-06
1.92048e-06
1.55355e-06
1.26181e-06
1.01296e-06
7.50992e-07
4.33549e-07
4.74381e-07
5.5463e-07
6.84311e-07
8.38964e-07
1.05352e-06
1.35345e-06
1.68665e-06
2.10542e-06
2.94898e-06
3.67295e-06
3.09242e-06
2.42065e-06
2.10136e-06
1.7972e-06
1.50832e-06
1.22729e-06
9.76941e-07
7.65982e-07
5.93449e-07
5.72821e-07
5.15066e-07
5.70669e-07
6.94703e-07
8.67939e-07
1.17818e-06
1.7382e-06
2.54436e-06
3.70059e-06
5.67557e-06
8.05884e-06
6.16677e-06
3.58394e-06
2.36419e-06
1.74226e-06
1.396e-06
1.15945e-06
9.8233e-07
8.20292e-07
6.7116e-07
6.90045e-07
6.49929e-07
6.29087e-07
7.12926e-07
8.73063e-07
1.25186e-06
2.14727e-06
3.81941e-06
6.47194e-06
1.05563e-05
1.50291e-05
1.1337e-05
5.88264e-06
2.96279e-06
1.77842e-06
1.30195e-06
1.06393e-06
9.22797e-07
8.10646e-07
6.98611e-07
7.08151e-07
1.18641e-06
8.90466e-07
8.03224e-07
8.93431e-07
1.29152e-06
2.5256e-06
5.44584e-06
1.03569e-05
1.73409e-05
2.37444e-05
1.78389e-05
8.85258e-06
3.75938e-06
1.91926e-06
1.29141e-06
1.02784e-06
8.84599e-07
7.62328e-07
6.32181e-07
5.8802e-07
2.37554e-06
1.72598e-06
1.23396e-06
1.07588e-06
1.4193e-06
2.97212e-06
7.16184e-06
1.46524e-05
2.45414e-05
3.22361e-05
2.4571e-05
1.19136e-05
4.60305e-06
2.21146e-06
1.43218e-06
1.077e-06
8.87385e-07
7.60083e-07
6.66263e-07
6.87688e-07
4.01174e-06
3.18556e-06
2.44897e-06
2.16753e-06
2.76514e-06
4.85183e-06
9.75985e-06
1.88005e-05
2.94763e-05
3.68893e-05
2.85513e-05
1.40347e-05
5.62547e-06
2.99404e-06
2.02891e-06
1.4699e-06
1.13604e-06
9.76722e-07
9.29711e-07
9.77218e-07
6.00418e-06
5.43625e-06
5.35161e-06
5.99274e-06
7.59305e-06
9.95669e-06
1.3958e-05
2.12026e-05
3.02562e-05
3.63514e-05
2.93285e-05
1.52914e-05
8.04238e-06
6.0305e-06
4.80315e-06
3.56159e-06
2.54404e-06
1.89187e-06
1.53459e-06
1.43375e-06
8.67408e-06
9.87334e-06
1.31671e-05
1.6307e-05
1.85397e-05
2.00906e-05
2.23891e-05
2.71542e-05
3.40262e-05
3.85257e-05
3.31246e-05
2.26249e-05
1.81276e-05
1.70013e-05
1.55025e-05
1.22296e-05
8.01723e-06
4.828e-06
2.95825e-06
2.15198e-06
1.08553e-05
1.65676e-05
2.25682e-05
2.89761e-05
3.58561e-05
4.35956e-05
5.28326e-05
6.40136e-05
7.62158e-05
8.51789e-05
7.44877e-05
5.72336e-05
4.37557e-05
3.38129e-05
2.5968e-05
1.93348e-05
1.37926e-05
9.41442e-06
6.01823e-06
3.41773e-06
4.0985e-07
7.29968e-07
9.69978e-07
1.20516e-06
1.46718e-06
1.67355e-06
1.67092e-06
1.68577e-06
1.93844e-06
2.76946e-06
3.14034e-06
3.09728e-06
3.1059e-06
2.76159e-06
2.19207e-06
1.68807e-06
1.31936e-06
1.03617e-06
7.57164e-07
4.23933e-07
5.083e-07
5.83223e-07
7.21443e-07
8.95701e-07
1.14466e-06
1.48897e-06
1.95421e-06
2.94899e-06
5.06585e-06
1.04548e-05
8.12371e-06
4.05681e-06
2.72141e-06
2.05059e-06
1.56598e-06
1.21032e-06
9.48306e-07
7.4875e-07
5.88101e-07
5.63516e-07
5.73713e-07
6.00179e-07
7.22318e-07
9.19257e-07
1.29391e-06
1.98006e-06
3.13732e-06
5.67557e-06
1.11432e-05
2.58857e-05
1.8547e-05
7.89889e-06
3.60637e-06
2.14725e-06
1.52508e-06
1.18997e-06
9.58592e-07
7.867e-07
6.42863e-07
6.58575e-07
7.53036e-07
6.80437e-07
7.49107e-07
9.46068e-07
1.46459e-06
2.69914e-06
5.24952e-06
1.05563e-05
2.08824e-05
4.25734e-05
3.00648e-05
1.41577e-05
5.26698e-06
2.39245e-06
1.4977e-06
1.14833e-06
9.55985e-07
8.21655e-07
6.94546e-07
6.85137e-07
1.31181e-06
9.81667e-07
8.87597e-07
1.02746e-06
1.66137e-06
3.57586e-06
8.2111e-06
1.73409e-05
3.27367e-05
5.44172e-05
4.0522e-05
2.1114e-05
7.18534e-06
2.69429e-06
1.51686e-06
1.12672e-06
9.39583e-07
8.0573e-07
6.72155e-07
6.15103e-07
2.41773e-06
1.76319e-06
1.33914e-06
1.30345e-06
2.00743e-06
4.69115e-06
1.15011e-05
2.45414e-05
4.22461e-05
5.94965e-05
4.76976e-05
2.60537e-05
8.50672e-06
2.99758e-06
1.63953e-06
1.17415e-06
9.42115e-07
7.95848e-07
7.00441e-07
7.39599e-07
3.91825e-06
3.05521e-06
2.43346e-06
2.40189e-06
3.53028e-06
6.87669e-06
1.48075e-05
2.94763e-05
4.56496e-05
5.84745e-05
5.04276e-05
2.69738e-05
8.91572e-06
3.55301e-06
2.11567e-06
1.49767e-06
1.15411e-06
9.91169e-07
9.55036e-07
1.03444e-06
5.83086e-06
5.08122e-06
4.8628e-06
5.83152e-06
7.83231e-06
1.12349e-05
1.79988e-05
3.02561e-05
4.50717e-05
5.47094e-05
4.95107e-05
2.50433e-05
9.62396e-06
5.71738e-06
4.33016e-06
3.18912e-06
2.31074e-06
1.78022e-06
1.49841e-06
1.45351e-06
8.53202e-06
9.37112e-06
1.22305e-05
1.51153e-05
1.76416e-05
2.02359e-05
2.49588e-05
3.40262e-05
4.6709e-05
5.40765e-05
4.90426e-05
2.90766e-05
1.91045e-05
1.60454e-05
1.39347e-05
1.05583e-05
6.87913e-06
4.29518e-06
2.69733e-06
2.0673e-06
1.10401e-05
1.70816e-05
2.35178e-05
3.05376e-05
3.85135e-05
4.81266e-05
6.04371e-05
7.62158e-05
9.38977e-05
0.000105272
9.5563e-05
6.94876e-05
4.99079e-05
3.67162e-05
2.71532e-05
1.96329e-05
1.36883e-05
9.15892e-06
5.72734e-06
3.19287e-06
4.15005e-07
7.69593e-07
1.05308e-06
1.33836e-06
1.65498e-06
1.93289e-06
2.07542e-06
2.26373e-06
2.76946e-06
3.01907e-06
3.63212e-06
3.87054e-06
3.52263e-06
2.96466e-06
2.3034e-06
1.75022e-06
1.34864e-06
1.04603e-06
7.55412e-07
4.1036e-07
5.43739e-07
6.10122e-07
7.55732e-07
9.44406e-07
1.20739e-06
1.54916e-06
2.01845e-06
3.67295e-06
1.04548e-05
1.15533e-05
1.1071e-05
8.12898e-06
3.15966e-06
2.08656e-06
1.5332e-06
1.17636e-06
9.26841e-07
7.37493e-07
5.81978e-07
5.47512e-07
6.38908e-07
6.34143e-07
7.57862e-07
9.73457e-07
1.37163e-06
2.06177e-06
3.37593e-06
8.05885e-06
2.58857e-05
1.75491e-05
1.91746e-05
1.90249e-05
5.22872e-06
2.35577e-06
1.54251e-06
1.17212e-06
9.35194e-07
7.56641e-07
6.1308e-07
6.20151e-07
8.42475e-07
7.39881e-07
8.107e-07
1.04278e-06
1.62824e-06
2.94133e-06
5.93842e-06
1.50292e-05
4.25734e-05
2.15828e-05
2.93131e-05
2.95176e-05
7.94497e-06
2.82475e-06
1.61581e-06
1.19966e-06
9.73604e-07
8.08687e-07
6.67017e-07
6.42825e-07
1.38244e-06
1.06158e-06
1.00082e-06
1.21068e-06
1.99694e-06
4.1628e-06
9.58787e-06
2.37444e-05
5.44171e-05
2.5418e-05
4.11649e-05
3.74667e-05
1.02482e-05
3.26676e-06
1.70518e-06
1.22926e-06
9.97538e-07
8.38069e-07
6.96714e-07
6.39913e-07
2.37943e-06
1.766e-06
1.47389e-06
1.60597e-06
2.60259e-06
5.81564e-06
1.37053e-05
3.22361e-05
5.94964e-05
2.96206e-05
5.25782e-05
4.13289e-05
1.14188e-05
3.57677e-06
1.84041e-06
1.29507e-06
1.01867e-06
8.43428e-07
7.34491e-07
7.71797e-07
3.75501e-06
2.89426e-06
2.46128e-06
2.66995e-06
4.17528e-06
8.12792e-06
1.73161e-05
3.68893e-05
5.84745e-05
3.37668e-05
5.99894e-05
3.95866e-05
1.11122e-05
3.92085e-06
2.21695e-06
1.56543e-06
1.20086e-06
1.01126e-06
9.58579e-07
1.0376e-06
5.55057e-06
4.73941e-06
4.56025e-06
5.67537e-06
7.83929e-06
1.17818e-05
2.0054e-05
3.63514e-05
5.47094e-05
3.79578e-05
6.18004e-05
3.36404e-05
1.05372e-05
5.32076e-06
3.82603e-06
2.80703e-06
2.06503e-06
1.63078e-06
1.40329e-06
1.38171e-06
8.13661e-06
8.8106e-06
1.15024e-05
1.42738e-05
1.69375e-05
2.02696e-05
2.65393e-05
3.85257e-05
5.40765e-05
4.56417e-05
6.03762e-05
3.44294e-05
1.97883e-05
1.5119e-05
1.22107e-05
8.67518e-06
5.65746e-06
3.59141e-06
2.35401e-06
1.86394e-06
1.08176e-05
1.69105e-05
2.3533e-05
3.09372e-05
3.97433e-05
5.0886e-05
6.57343e-05
8.51789e-05
0.000105272
0.000102219
0.000111388
7.90174e-05
5.38762e-05
3.78372e-05
2.68348e-05
1.87019e-05
1.26737e-05
8.26029e-06
5.02653e-06
2.7934e-06
4.16787e-07
7.9595e-07
1.10827e-06
1.41786e-06
1.74364e-06
2.02921e-06
2.24575e-06
2.47535e-06
3.14034e-06
3.63212e-06
3.7478e-06
3.71352e-06
3.3921e-06
2.82025e-06
2.23358e-06
1.73348e-06
1.3488e-06
1.04434e-06
7.47425e-07
3.9455e-07
5.71821e-07
6.32765e-07
7.87401e-07
9.83666e-07
1.23673e-06
1.54053e-06
1.94853e-06
3.09243e-06
8.12374e-06
1.1071e-05
9.66762e-06
5.78299e-06
2.59686e-06
1.83059e-06
1.41691e-06
1.12753e-06
9.09799e-07
7.32159e-07
5.7615e-07
5.27633e-07
6.91595e-07
6.68827e-07
7.98775e-07
1.01651e-06
1.36828e-06
1.89795e-06
2.86284e-06
6.16679e-06
1.8547e-05
1.91746e-05
1.86428e-05
1.29537e-05
3.80851e-06
1.94733e-06
1.40414e-06
1.11788e-06
9.08929e-07
7.37294e-07
5.89765e-07
5.84588e-07
9.13656e-07
8.00259e-07
8.85497e-07
1.12502e-06
1.62712e-06
2.55826e-06
4.58365e-06
1.1337e-05
3.00648e-05
2.93131e-05
3.08601e-05
1.9997e-05
5.44885e-06
2.25648e-06
1.50372e-06
1.18389e-06
9.66179e-07
7.90681e-07
6.39856e-07
6.11901e-07
1.43045e-06
1.13024e-06
1.12334e-06
1.37259e-06
2.05852e-06
3.55605e-06
7.25912e-06
1.78389e-05
4.05221e-05
4.11649e-05
4.38935e-05
2.539e-05
6.84726e-06
2.59936e-06
1.66484e-06
1.28745e-06
1.04425e-06
8.59319e-07
7.0601e-07
6.54397e-07
2.35224e-06
1.77135e-06
1.61682e-06
1.86444e-06
2.76653e-06
4.92078e-06
1.02627e-05
2.4571e-05
4.76977e-05
5.25782e-05
5.40761e-05
2.77004e-05
7.54176e-06
2.90223e-06
1.86226e-06
1.40328e-06
1.10791e-06
9.01175e-07
7.66558e-07
7.79296e-07
3.65495e-06
2.80921e-06
2.55756e-06
2.87872e-06
4.16343e-06
6.91934e-06
1.30306e-05
2.85513e-05
5.04277e-05
5.99894e-05
5.7725e-05
2.60725e-05
7.45087e-06
3.28742e-06
2.22515e-06
1.65726e-06
1.27465e-06
1.04154e-06
9.46926e-07
1.00252e-06
5.381e-06
4.63034e-06
4.62318e-06
5.5287e-06
7.34168e-06
1.00802e-05
1.59929e-05
2.93285e-05
4.95107e-05
6.18004e-05
5.48337e-05
2.20173e-05
7.66155e-06
4.69357e-06
3.50129e-06
2.58298e-06
1.92324e-06
1.51645e-06
1.29935e-06
1.28875e-06
7.83815e-06
8.6066e-06
1.11424e-05
1.39808e-05
1.62663e-05
1.8776e-05
2.33786e-05
3.31246e-05
4.90426e-05
6.03762e-05
4.97142e-05
2.60124e-05
1.70272e-05
1.43099e-05
1.13555e-05
7.84552e-06
5.03051e-06
3.2335e-06
2.13829e-06
1.71897e-06
1.02815e-05
1.58298e-05
2.17978e-05
2.84022e-05
3.59913e-05
4.53314e-05
5.76555e-05
7.44877e-05
9.5563e-05
0.000111388
9.31179e-05
6.42305e-05
4.50719e-05
3.25291e-05
2.34206e-05
1.65004e-05
1.13222e-05
7.48832e-06
4.64403e-06
2.60083e-06
4.144e-07
8.03416e-07
1.12247e-06
1.4195e-06
1.70217e-06
1.94217e-06
2.20957e-06
2.59226e-06
3.09728e-06
3.87054e-06
3.71352e-06
3.44644e-06
3.02125e-06
2.52137e-06
2.04788e-06
1.64213e-06
1.30792e-06
1.02293e-06
7.31461e-07
3.7795e-07
5.83781e-07
6.42368e-07
8.04838e-07
1.00018e-06
1.22775e-06
1.48304e-06
1.81992e-06
2.42065e-06
4.05682e-06
8.12901e-06
5.783e-06
2.77737e-06
2.00288e-06
1.59178e-06
1.29799e-06
1.07092e-06
8.85521e-07
7.2094e-07
5.66169e-07
5.04689e-07
7.14981e-07
6.91276e-07
8.27951e-07
1.02937e-06
1.29431e-06
1.63456e-06
2.20097e-06
3.58395e-06
7.89892e-06
1.90249e-05
1.29537e-05
4.62242e-06
2.22379e-06
1.54555e-06
1.24953e-06
1.04591e-06
8.73007e-07
7.14335e-07
5.68256e-07
5.53939e-07
9.38668e-07
8.35409e-07
9.35452e-07
1.14671e-06
1.47312e-06
1.95901e-06
2.96969e-06
5.88265e-06
1.41577e-05
2.95177e-05
1.9997e-05
7.06293e-06
2.71665e-06
1.66139e-06
1.31441e-06
1.10445e-06
9.25145e-07
7.59825e-07
6.10934e-07
5.87236e-07
1.41469e-06
1.15214e-06
1.1934e-06
1.42369e-06
1.83238e-06
2.49776e-06
4.08745e-06
8.85259e-06
2.11141e-05
3.74668e-05
2.539e-05
9.05766e-06
3.2237e-06
1.87863e-06
1.47576e-06
1.23845e-06
1.03509e-06
8.51578e-07
6.94856e-07
6.46258e-07
2.24491e-06
1.72432e-06
1.67413e-06
1.93705e-06
2.44855e-06
3.30508e-06
5.4599e-06
1.19136e-05
2.60538e-05
4.1329e-05
2.77004e-05
9.9184e-06
3.61773e-06
2.17415e-06
1.71624e-06
1.41924e-06
1.15996e-06
9.39655e-07
7.79663e-07
7.56414e-07
3.43105e-06
2.68219e-06
2.57628e-06
2.92181e-06
3.58957e-06
4.69568e-06
7.11035e-06
1.40347e-05
2.69738e-05
3.95867e-05
2.60725e-05
9.59096e-06
4.0154e-06
2.66878e-06
2.11478e-06
1.6847e-06
1.32007e-06
1.05413e-06
9.12972e-07
9.3643e-07
5.00924e-06
4.44256e-06
4.68966e-06
5.36722e-06
6.61887e-06
7.93918e-06
1.00307e-05
1.52914e-05
2.50434e-05
3.36405e-05
2.20173e-05
9.20803e-06
5.3883e-06
4.19545e-06
3.23306e-06
2.41411e-06
1.80145e-06
1.3988e-06
1.17676e-06
1.17939e-06
7.22663e-06
8.18428e-06
1.09499e-05
1.39504e-05
1.60914e-05
1.75337e-05
1.913e-05
2.26249e-05
2.90766e-05
3.44294e-05
2.60124e-05
1.76149e-05
1.53711e-05
1.37552e-05
1.04019e-05
7.04962e-06
4.5652e-06
2.89789e-06
1.91423e-06
1.56908e-06
9.39301e-06
1.4283e-05
1.95321e-05
2.51976e-05
3.14125e-05
3.84277e-05
4.68167e-05
5.72335e-05
6.94875e-05
7.90174e-05
6.42305e-05
4.78833e-05
3.59442e-05
2.69732e-05
1.98091e-05
1.4156e-05
9.82995e-06
6.57262e-06
4.1346e-06
2.36202e-06
3.97393e-07
7.64067e-07
1.04553e-06
1.27068e-06
1.46636e-06
1.66221e-06
2.0159e-06
2.54998e-06
3.1059e-06
3.52263e-06
3.3921e-06
3.02124e-06
2.59506e-06
2.16788e-06
1.7923e-06
1.4647e-06
1.19276e-06
9.52889e-07
6.92539e-07
3.58775e-07
5.60431e-07
6.24843e-07
7.91507e-07
9.79475e-07
1.18062e-06
1.39917e-06
1.67911e-06
2.10136e-06
2.72142e-06
3.15966e-06
2.59686e-06
2.00288e-06
1.66628e-06
1.40628e-06
1.18831e-06
1.00464e-06
8.44401e-07
6.93823e-07
5.46642e-07
4.76595e-07
6.84861e-07
6.82102e-07
8.24178e-07
1.00364e-06
1.19631e-06
1.41197e-06
1.73323e-06
2.3642e-06
3.60637e-06