/*--------------------------------*- C++ -*----------------------------------*\
| =========                 |                                                 |
| \\      /  F ield         | OpenFOAM: The Open Source CFD Toolbox           |
|  \\    /   O peration     | Version:  1.7.1                                 |
|   \\  /    A nd           | Web:      www.OpenFOAM.com                      |
|    \\/     M anipulation  |                                                 |
\*---------------------------------------------------------------------------*/
FoamFile
{
    version     2.0;
    format      ascii;
    class       surfaceScalarField;
    location    "400";
    object      phi;
}
// * * * * * * * * * * * * * * * * * * * * * * * * * * * * * * * * * * * * * //

dimensions      [1 0 -1 0 0 0 0];

internalField   nonuniform List<scalar> 
11200
(
-0.0015103
0.0030205
-0.00151033
-0.00247766
0.00224461
-0.00127739
-0.00324561
0.00152841
-0.000760575
-0.00381534
0.000753766
-0.000184134
-0.00396573
-8.32474e-05
0.000233579
-0.00369597
-0.000746858
0.000477094
-0.00318325
-0.00115916
0.00064646
-0.00251387
-0.00141277
0.000743417
-0.00168001
-0.00160977
0.000775954
-0.000680523
-0.00174088
0.000741449
0.000420658
-0.00174488
0.000643759
0.00138806
-0.0014725
0.000505142
0.00186218
-0.000823624
0.000349499
0.00173203
-4.49235e-05
0.000175021
0.00104312
0.000746223
-5.73773e-05
0.000307474
0.00118249
-0.000446913
-5.72753e-05
0.00132489
-0.000960222
2.7954e-05
0.00147186
-0.00155718
0.000333521
0.00193803
-0.00224371
0.00300722
-0.00267385
-0.000658518
0.00433739
-0.000658524
-0.00102812
0.00337497
-0.000760885
-0.00121913
0.0023879
-0.000668601
-0.00132506
0.00138044
-0.000520832
-0.00142316
0.000344032
-0.000329229
-0.00141919
-0.000637873
-0.000112973
-0.0012396
-0.0014009
6.21869e-05
-0.00092105
-0.00194583
0.000214581
-0.000496409
-0.00237333
0.000339011
3.13437e-06
-0.00264289
0.000402566
0.000525373
-0.00267177
0.000404758
0.000973986
-0.00228357
0.000362538
0.00122415
-0.00134894
0.000275185
0.00105651
-1.07092e-05
0.000133365
0.000531657
0.00136946
-9.85096e-05
-6.6573e-05
0.00217173
-0.000391182
-0.000460266
0.00243265
-0.000714273
-0.000553078
0.00258426
-0.00101979
-0.000187799
0.00291344
-0.00134087
0.00405967
-0.00124043
-4.51151e-05
0.00442742
-4.51117e-05
3.14837e-05
0.00345845
-0.000160263
9.73437e-05
0.00249578
-0.000173889
0.000246626
0.00141998
-0.000188944
0.000478133
0.000302053
-0.000189599
0.000775689
-0.000754778
-0.000180653
0.000962498
-0.00153249
-5.51545e-05
0.00100721
-0.00212668
0.000136253
0.000961218
-0.00263332
0.000306142
0.000885997
-0.00299143
0.000423936
0.00080012
-0.00308014
0.000494415
0.000708976
-0.00273209
0.000539794
0.000612941
-0.00184226
0.00058942
0.000420533
-0.000443653
0.000625326
5.98928e-05
0.00123444
0.000495509
-0.000353516
0.00236541
0.00021951
-0.000628356
0.00277407
-6.68338e-05
-0.000707261
0.0029492
-0.000286283
-0.000389705
0.0031371
-0.000541442
0.00412057
-0.00045084
0.000752122
0.0029229
0.00075213
0.00136496
0.00215911
0.000686262
0.00186321
0.00135439
0.000642936
0.00228179
0.000411583
0.000589672
0.0026297
-0.000613026
0.000567128
0.00287059
-0.00165291
0.000657345
0.0028542
-0.00233153
0.000815588
0.00260748
-0.00279652
0.000916769
0.00215198
-0.00313132
0.00095372
0.00157377
-0.00337871
0.000965714
0.000993921
-0.00347665
0.000976579
0.000477167
-0.00323121
0.00101606
4.28451e-05
-0.00255762
0.0011498
-0.000334518
-0.00143682
0.00137056
-0.000665574
0.000113505
0.00145184
-0.000827533
0.00138337
0.00114375
-0.000818992
0.00205651
0.000708757
-0.000723178
0.00245048
0.000402638
-0.000427303
0.00273854
0.000102426
0.00357967
0.000113336
0.00185778
-0.000792914
0.00185779
0.00315995
-0.00104645
0.00190322
0.00411735
-0.00156927
0.00196622
0.0047531
-0.00229541
0.00207132
0.00496948
-0.00305831
0.00222905
0.00463873
-0.00367925
0.00235723
0.00404384
-0.0040918
0.00235533
0.00332975
-0.004296
0.00221376
0.0025023
-0.00431494
0.00201126
0.0016212
-0.00432265
0.00182524
0.000848134
-0.00438976
0.00168636
0.000219384
-0.00424225
0.00163994
-0.000325025
-0.00380095
0.00178786
-0.000823619
-0.00304758
0.00210942
-0.00108687
-0.00203655
0.00241329
-0.00107323
-0.00096816
0.00233773
-0.000872773
0.00010618
0.00174965
-0.000627317
0.00097838
0.00122639
-0.00038628
0.00170779
0.000789448
0.00254186
0.000651244
0.00237597
-0.0055448
0.00237597
0.00370796
-0.00515245
0.00277404
0.00428087
-0.00523405
0.00309188
0.00421646
-0.00552872
0.00329772
0.00371341
-0.00591822
0.00336298
0.00305747
-0.00628461
0.00326133
0.00248113
-0.00651348
0.00299807
0.00202539
-0.00650378
0.00266359
0.00151893
-0.00621059
0.00240219
0.000966143
-0.00596691
0.00219715
0.000586008
-0.00601442
0.00200489
0.000357366
-0.00592818
0.00191464
0.000145365
-0.00563394
0.00204504
-0.000126515
-0.00513323
0.00235756
-0.000407784
-0.00447886
0.00272358
-0.000604604
-0.00376036
0.00298899
-0.000597623
-0.00284463
0.00294378
-0.000371249
-0.00153978
0.00229171
-0.000249174
3.32995e-05
0.00155221
0.0010707
0.00122171
0.00139466
-0.00833422
0.00139466
0.00172999
-0.00777422
0.00228637
0.00143752
-0.0077043
0.00276268
0.000865074
-0.00788164
0.00292538
0.000314641
-0.00819701
0.00282924
2.54195e-05
-0.00853206
0.00253671
8.1193e-05
-0.00872685
0.00215765
0.000331824
-0.00859755
0.00184319
0.000483832
-0.00812668
0.00176413
0.0005725
-0.00775892
0.00170339
0.000861626
-0.00782979
0.0015263
0.0012385
-0.00775451
0.0014495
0.00151302
-0.00747964
0.00157122
0.00157055
-0.00702035
0.00182961
0.00139396
-0.00646244
0.00216016
0.000988329
-0.00586444
0.00250969
0.000471058
-0.00515187
0.00282446
6.23617e-05
-0.00406457
0.00293342
-1.45493e-05
-0.00230711
0.00241729
-0.000813094
0.00186909
0.000275585
-0.00888545
0.00027558
-0.000491415
-0.00850351
0.00149626
-0.00151988
-0.00845039
0.00177458
-0.00230976
-0.00869788
0.00160617
-0.00265777
-0.00903593
0.001187
-0.00247527
-0.00935209
0.000637605
-0.00177105
-0.00950824
7.72392e-05
-0.000824241
-0.00937787
-0.000166425
9.50735e-06
-0.00891518
-4.51858e-05
0.000736945
-0.00853801
5.17298e-05
0.00167155
-0.00866626
-9.80703e-05
0.00261139
-0.00860053
-9.37617e-05
0.00334164
-0.00831224
0.000102408
0.00370334
-0.00787022
0.000488217
0.00368256
-0.00732674
0.00088512
0.00326979
-0.00672735
0.00127568
0.00251375
-0.0060687
0.00167284
0.00157011
-0.00519151
0.00207052
0.000729136
-0.00388453
0.00241828
-0.00248999
0.00240593
-0.00118811
-0.00650925
-0.00118812
-0.00302568
-0.00638862
-0.000277293
-0.0044357
-0.00656863
-0.000471683
-0.00522855
-0.00697321
-0.000931746
-0.00532247
-0.00739714
-0.00154478
-0.00471817
-0.00776001
-0.0021963
-0.00348309
-0.00799045
-0.00275278
-0.00185328
-0.00801035
-0.00299724
-0.000244058
-0.00776487
-0.00275945
0.00123162
-0.00748765
-0.00252596
0.00285466
-0.00760827
-0.00268095
0.00431332
-0.00747926
-0.00257985
0.00538805
-0.00714267
-0.00224422
0.00599734
-0.00668001
-0.00179944
0.00612056
-0.00614178
-0.00130811
0.00575417
-0.00555619
-0.000804722
0.00490248
-0.00492039
-0.000296596
0.003573
-0.00418581
0.000323758
0.00193473
-0.0033166
0.00107026
-0.00238251
0.00182713
-0.00325461
-0.00325462
-0.00593503
-0.00370814
-0.0075953
-0.00490828
-0.00840448
-0.00616393
-0.00837765
-0.00742387
-0.00751406
-0.00862349
-0.0058357
-0.00966871
-0.00344107
-0.0104049
-0.000727585
-0.0104783
0.00207661
-0.0102917
0.00464212
-0.0101737
0.006631
-0.00946805
0.00798488
-0.00849645
0.00870689
-0.00740191
0.00881561
-0.0062504
0.00831778
-0.00505828
0.00720206
-0.0038046
0.00546331
-0.00244703
0.00307332
-0.000926636
0.000690729
-0.00127736
0.00224461
-0.0024777
-0.00225105
0.00194725
-0.00225107
-0.00294259
0.00158044
-0.00164959
-0.00344073
0.00114285
-0.000828952
-0.00369774
0.000526843
-3.63362e-05
-0.00358956
-0.000188346
0.000557227
-0.00317199
-0.000721387
0.000950282
-0.00253907
-0.00111335
0.00122387
-0.00172877
-0.00141788
0.00138358
-0.000755334
-0.0016468
0.00141487
0.000333309
-0.00175492
0.0013101
0.00131716
-0.00157653
0.00109787
0.00181578
-0.000951469
0.00080237
0.00169314
-8.28368e-05
0.000380454
0.0010103
0.000835653
-0.000210238
0.00028042
0.00138062
-0.00109772
-0.000132056
0.00162218
-0.00217003
-0.000227645
0.00175705
-0.00321876
-0.000114538
0.00187366
-0.00423062
0.00196526
-0.00475381
-0.000760882
0.00337496
-0.00102813
-0.00122073
0.00286681
-0.00122073
-0.00145151
0.00224711
-0.0011046
-0.00153012
0.00154551
-0.000844981
-0.00151244
0.000716589
-0.000536718
-0.00143455
-0.000167271
-0.00021197
-0.00124218
-0.000986187
0.000134636
-0.000927995
-0.00166246
0.000449569
-0.000514206
-0.00221523
0.000722652
-2.58771e-05
-0.00263179
0.000899331
0.000491644
-0.00281704
0.000949469
0.000948514
-0.00257311
0.000902345
0.00122564
-0.00172551
0.000772134
0.0011294
-0.0003668
0.000513538
0.000713864
0.0010831
6.94557e-05
0.000234426
0.00193535
-0.000466621
-5.90232e-05
0.00222489
-0.00102369
-0.000108838
0.00234889
-0.00156199
-2.15637e-05
0.00257906
-0.0021337
0.00306197
-0.00235887
-0.000160268
0.00345845
3.14896e-05
-0.000177208
0.00290052
-0.0001772
-0.000133603
0.0022587
-0.000229231
-2.70387e-05
0.00148021
-0.000230321
0.000127013
0.000582116
-0.000209255
0.000378213
-0.00043437
-0.000164767
0.000603129
-0.00128337
1.71584e-05
0.000744712
-0.00197616
0.000308462
0.000801655
-0.00258309
0.000617185
0.000797788
-0.00307149
0.000867647
0.000761357
-0.00330829
0.00102224
0.000717634
-0.00310224
0.00111277
0.000679739
-0.00228485
0.00118674
0.000595674
-0.000864385
0.00120697
0.000427571
0.000762226
0.000984355
0.000157637
0.00187695
0.000547656
-2.05906e-05
0.00223358
0.000102503
-6.74692e-05
0.00238648
-0.00027719
-1.50117e-05
0.00270236
-0.000717384
0.00348827
-0.000892348
0.000686254
0.0021591
0.00136498
0.00126318
0.00174644
0.00126319
0.00170554
0.00128695
0.00117213
0.00205354
0.000652135
0.0010696
0.00228252
-3.63488e-05
0.000956525
0.00247293
-0.000919845
0.00095243
0.00252425
-0.00157654
0.00105753
0.00238746
-0.00210327
0.00118081
0.00205088
-0.00260204
0.00130941
0.00155663
-0.00305113
0.00143979
0.000992635
-0.00331616
0.00154863
0.000452644
-0.00320842
0.0016624
-4.84319e-06
-0.00254897
0.00187152
-0.000293811
-0.00136013
0.00215531
-0.000381321
4.14267e-05
0.00226003
-0.000316133
0.00109895
0.00185635
-0.000232775
0.00154503
0.00131374
-0.000189547
0.00184966
0.000896024
-0.000116254
0.00228995
0.000441324
0.00327509
0.00021003
0.00190322
-0.00104645
0.00315996
0.00319437
-0.000836044
0.00319438
0.00410727
-0.000848028
0.00318817
0.00473455
-0.00107823
0.00317437
0.00512037
-0.00140067
0.00320761
0.0050503
-0.001692
0.00319954
0.00461913
-0.00188659
0.00309667
0.00391979
-0.00208499
0.00289496
0.00302111
-0.00236407
0.00267214
0.001998
-0.0027045
0.00250189
0.000962676
-0.00299112
0.00239681
8.78425e-06
-0.0030135
0.00239907
-0.00079753
-0.00261138
0.00265671
-0.00132057
-0.0018568
0.00312918
-0.00136154
-0.00102483
0.00352048
-0.00102362
-0.000318789
0.0034174
-0.000672385
0.000200276
0.00274298
-0.000414896
0.000700518
0.00211785
-0.000264057
0.00135167
0.00157668
0.00235501
0.00130701
0.00277404
-0.00515244
0.00370796
0.00442444
-0.0041368
0.00442444
0.00541173
-0.00359312
0.00484971
0.00584765
-0.00326409
0.00504767
0.00581408
-0.00306258
0.00505847
0.00540677
-0.00289563
0.00487229
0.00473083
-0.00270962
0.00449708
0.0038477
-0.00255787
0.00401966
0.00279927
-0.00249538
0.00358202
0.00164423
-0.00259177
0.00323955
0.000523158
-0.00283218
0.00296711
-0.000451733
-0.00296766
0.00284378
-0.00121125
-0.00288023
0.00307347
-0.00168551
-0.00261686
0.00359191
-0.001821
-0.00229762
0.00413186
-0.00159675
-0.00199699
0.00444291
-0.00108611
-0.00163613
0.00426948
-0.000596851
-0.00101313
0.00351601
-0.00037236
-4.82431e-05
0.00272744
0.000890358
0.00231376
0.00228637
-0.00777422
0.00172998
0.00340825
-0.0063806
0.00340824
0.00382388
-0.00554352
0.00429741
0.00381118
-0.00498236
0.00465632
0.00357348
-0.00460512
0.00460949
0.00323384
-0.00427813
0.00425887
0.0028087
-0.00388903
0.00376223
0.00227783
-0.00350095
0.00331716
0.00159942
-0.00311478
0.00306196
0.000820274
-0.00298136
0.00287217
0.000126281
-0.00319628
0.00258443
-0.000384305
-0.00341051
0.00240298
-0.00074031
-0.00352629
0.00257331
-0.000992227
-0.00356743
0.00303211
-0.00118012
-0.00354423
0.00359465
-0.00128627
-0.00347977
0.00409857
-0.0012215
-0.00327522
0.00439871
-0.000856622
-0.0027856
0.00434094
-0.000435396
-0.0018058
0.00375358
-0.000872135
0.00319605
0.00149627
-0.0085035
-0.000491424
0.00177562
-0.00693933
0.00177562
0.00146225
-0.00608039
0.00262483
0.00102253
-0.00560808
0.00267164
0.000719508
-0.00533974
0.00222469
0.000637475
-0.00510443
0.00154599
0.000675556
-0.00476983
0.00092001
0.000731314
-0.00432802
0.000604938
0.000640901
-0.00376203
0.000692522
0.000465201
-0.00352414
0.000770245
0.000442951
-0.0038247
0.000552639
0.000563266
-0.0040783
0.000453756
0.000689654
-0.0042137
0.000663469
0.000732088
-0.0042514
0.00112978
0.000573028
-0.00424499
0.00174496
0.000211527
-0.00424043
0.00239785
-0.00020103
-0.00417699
0.00298715
-0.00043163
-0.00390753
0.00342298
-0.000317132
-0.00314112
0.00363898
-0.00232185
0.00353842
-0.000277288
-0.00638862
-0.00302569
-0.00107503
-0.00534379
-0.00107504
-0.0021451
-0.00472175
-0.000760189
-0.00288251
-0.00447541
-0.00132693
-0.00312816
-0.00432922
-0.00230957
-0.00285794
-0.00417545
-0.00339542
-0.00208615
-0.00394699
-0.00434733
-0.00104803
-0.00360723
-0.00475608
-1.26382e-05
-0.00302816
-0.00452864
0.000869027
-0.00269987
-0.00423184
0.00183029
-0.003215
-0.00425185
0.00274416
-0.00349263
-0.00407933
0.00338746
-0.00361182
-0.00348933
0.00369577
-0.00363171
-0.00272739
0.00361737
-0.00360538
-0.00186925
0.00311517
-0.00357517
-0.000967731
0.00217957
-0.00355011
1.21565e-05
0.00120696
-0.00344919
0.000838004
0.000517521
-0.00308495
0.00170346
-0.0023719
0.00239458
-0.00370813
-0.00593505
-0.00637998
-0.00637999
-0.00808302
-0.00792687
-0.00896545
-0.0097568
-0.00904125
-0.0116772
-0.0082914
-0.0135487
-0.00671068
-0.0151963
-0.00432297
-0.0163997
-0.00109897
-0.0167303
0.00240228
-0.0164928
0.00512242
-0.0161087
0.00707502
-0.0149132
0.00830193
-0.0133351
0.00884225
-0.0115738
0.00873289
-0.00974632
0.00798252
-0.00788296
0.00658482
-0.00595693
0.00458763
-0.00389896
0.0022222
-0.00164616
0.000540957
-0.000760558
0.00152839
-0.00324565
-0.00164958
0.00158044
-0.00294261
-0.00234002
0.00138078
-0.00234002
-0.0028002
0.00112604
-0.00149491
-0.00305005
0.000761576
-0.000548144
-0.00304759
0.000233878
0.000320827
-0.00277961
-0.000338265
0.00102055
-0.00229009
-0.000800358
0.00153472
-0.00162145
-0.00118637
0.00190135
-0.000791294
-0.00148912
0.00207389
0.000178363
-0.00165574
0.00199625
0.00108312
-0.00151618
0.00170935
0.00150837
-0.000870634
0.00124777
0.00127654
7.15921e-05
0.000540648
0.000516405
0.00107482
-0.000524963
-0.000222512
0.00153998
-0.00189887
-0.000731567
0.00155724
-0.00321833
-0.000840078
0.00124692
-0.00435729
-0.000625715
0.000760665
-0.00520574
0.000109706
-0.00548929
-0.000668603
0.00238789
-0.00121914
-0.0011046
0.00224711
-0.00145151
-0.00136036
0.00189217
-0.00136035
-0.00143798
0.00143686
-0.00107827
-0.00136613
0.000857277
-0.000704345
-0.00120815
0.000150364
-0.000286481
-0.000999582
-0.000594651
0.000182463
-0.000735191
-0.00130907
0.000693931
-0.00041388
-0.00196237
0.00117741
-3.74394e-05
-0.00249603
0.00152989
0.00039689
-0.00279273
0.00165223
0.000820244
-0.00263101
0.00159391
0.00111154
-0.00179142
0.00140167
0.00105802
-0.000377005
0.00101563
0.000754534
0.00106577
0.000381881
0.000361792
0.00183169
-0.000365719
9.32705e-05
0.00196181
-0.00115988
1.27811e-05
0.00175037
-0.00198506
3.89185e-06
0.00139344
-0.00275767
0.000979817
-0.00322513
-0.000173896
0.00249577
9.73489e-05
-0.000229242
0.0022587
-0.000133593
-0.000229128
0.00189181
-0.000229115
-0.000161459
0.00137277
-0.000234002
-1.65321e-05
0.000695654
-0.000192638
0.000216087
-0.000130282
-0.000116776
0.00048076
-0.000943615
0.000101475
0.000663744
-0.00168464
0.000501103
0.000732752
-0.00239628
0.000982185
0.00071417
-0.00302374
0.00141406
0.000678795
-0.00340856
0.00167358
0.000679879
-0.00331587
0.00179667
0.000728865
-0.0025101
0.00185651
0.000776227
-0.00103622
0.00181881
0.000745003
0.000583647
0.00149758
0.000584131
0.00159698
0.000943095
0.000459879
0.0018481
0.000340306
0.000404158
0.00178
-0.00025124
0.000278366
0.00165165
-0.000849911
0.00160747
-0.00124173
0.000642928
0.00135439
0.00186323
0.00117212
0.00128695
0.00170556
0.00153774
0.00116039
0.00153775
0.00178272
0.000822375
0.00137487
0.00194649
0.000271852
0.00121646
0.00206362
-0.00039309
0.00109808
0.00214885
-0.00109951
0.00112822
0.0021077
-0.00173676
0.00127416
0.00187236
-0.00238746
0.00153603
0.00144857
-0.00301072
0.00185069
0.000937485
-0.00344891
0.00210021
0.000461429
-0.00346532
0.00228804
8.8051e-05
-0.00278251
0.00251741
-9.41974e-05
-0.00148025
0.00278161
-7.20677e-06
-7.38396e-05
0.00283043
0.00015344
0.000924391
0.00236812
0.000273438
0.00125801
0.00178367
0.000346198
0.00135218
0.00125093
0.000255658
0.00146155
0.000721814
0.00175096
0.00032206
0.00196621
-0.00156926
0.00411736
0.00318816
-0.000848027
0.00410728
0.00397623
-0.000415901
0.00397624
0.00446661
-0.000284309
0.00379055
0.00472651
-0.000390055
0.00360955
0.00470412
-0.000610683
0.00343952
0.00437536
-0.000874698
0.00320065
0.00381532
-0.001249
0.00296731
0.00303838
-0.00176947
0.0028312
0.00207006
-0.00236282
0.00282244
0.00101851
-0.00286233
0.00286191
9.5544e-06
-0.00301267
0.00295551
-0.00084422
-0.00253987
0.00326796
-0.00133015
-0.00162478
0.0037597
-0.00128762
-0.000735349
0.00413943
-0.00086631
-9.86861e-05
0.00401903
-0.000426075
0.00020432
0.00335628
-0.000106625
0.000443765
0.00270665
1.07083e-05
0.000772816
0.00214792
0.00129582
0.00177266
0.00309188
-0.00523404
0.00428087
0.00484971
-0.00359312
0.00541173
0.00593621
-0.00258885
0.00593621
0.00652525
-0.00188856
0.00606292
0.00666895
-0.0014103
0.00593504
0.00639315
-0.00106814
0.00560556
0.00575242
-0.000851259
0.0051144
0.00480533
-0.00082754
0.00454533
0.00359529
-0.00103502
0.00405767
0.00218588
-0.00144526
0.00373147
0.000726708
-0.0019408
0.00350485
-0.000635124
-0.00223497
0.00342801
-0.00171734
-0.00211173
0.00372763
-0.00232995
-0.00175727
0.00433705
-0.0024303
-0.00144716
0.00494402
-0.00205184
-0.00128021
0.00524594
-0.00139581
-0.00117801
0.00499571
-0.000773272
-0.000924417
0.00426158
-0.000399205
-0.000399309
0.00352535
0.000135453
0.00307472
0.00276268
-0.00770429
0.00143752
0.00429741
-0.00554352
0.00382387
0.00512091
-0.0042359
0.0051209
0.00545953
-0.00326513
0.00569422
0.00544364
-0.00251589
0.00573095
0.005147
-0.00188853
0.00537589
0.00460857
-0.00133878
0.00478818
0.00383572
-0.000932395
0.00419487
0.00278007
-0.000722109
0.00380473
0.00148422
-0.000846968
0.00356977
0.00015995
-0.00131481
0.00328274
-0.0010033
-0.00173913
0.00307043
-0.00185478
-0.00196676
0.00327986
-0.00237636
-0.00206244
0.00385888
-0.00259916
-0.00217424
0.00454452
-0.00254141
-0.00234664
0.00510722
-0.00221174
-0.00248552
0.00537649
-0.00159427
-0.00243347
0.00523245
-0.000862139
-0.0020626
0.0046847
-0.00167742
0.00414671
0.00177458
-0.00845038
-0.00151989
0.00262483
-0.00608038
0.00146223
0.00286267
-0.00471155
0.00286266
0.00281545
-0.00375264
0.00320639
0.002688
-0.00301941
0.00285569
0.00255124
-0.00233995
0.0021342
0.00238522
-0.00165513
0.0014024
0.00213035
-0.00102266
0.000950094
0.00161993
-0.000441949
0.000922806
0.000900454
-0.000346641
0.000989418
0.00024817
-0.000882657
0.000772793
-0.000290416
-0.00142719
0.000680426
-0.000681787
-0.00185951
0.000947612
-0.000978019
-0.00219333
0.00155692
-0.00125131
-0.00251965
0.00236367
-0.00150606
-0.00288434
0.00319028
-0.00163858
-0.00324194
0.00387606
-0.00150015
-0.00344062
0.00429163
-0.000956138
-0.00334316
0.00437542
-0.00319162
0.00409637
-0.000471678
-0.00656862
-0.00443572
-0.000760177
-0.00472174
-0.00214512
-0.00133375
-0.00356434
-0.00133376
-0.00178962
-0.00289879
-0.00172483
-0.00198679
-0.00237229
-0.00275944
-0.00184071
-0.00184351
-0.00403789
-0.00125034
-0.0012402
-0.00535257
-0.000418874
-0.000487714
-0.00612243
0.000368539
0.000411262
-0.00616921
0.000923892
0.000719892
-0.00585367
0.0015242
-7.219e-05
-0.00566258
0.00204287
-0.000886781
-0.00513835
0.00232501
-0.00143722
-0.00419372
0.00240454
-0.00181286
-0.00318734
0.00222022
-0.00211183
-0.00209271
0.00173843
-0.0024033
-0.000966932
0.00107751
-0.00272482
0.000155986
0.000367016
-0.00309098
0.00119886
4.28174e-05
-0.00332962
0.00201406
-0.00320254
0.00244821
-0.00490826
-0.00759532
-0.00792686
-0.00808304
-0.00970897
-0.00970899
-0.0105878
-0.0117767
-0.0106186
-0.0140186
-0.00976467
-0.016246
-0.00799711
-0.018204
-0.00521835
-0.0196661
-0.0013365
-0.0202008
0.00289936
-0.0200086
0.00610229
-0.0193837
0.0082295
-0.0179271
0.0094788
-0.0160215
0.00995299
-0.0138608
0.00974106
-0.0116461
0.00887837
-0.00942346
0.00736958
-0.00717284
0.00522068
-0.00484094
0.00261859
-0.00237365
-4.30355e-05
-0.000184132
0.000753745
-0.00381537
-0.000828955
0.00114285
-0.00344074
-0.00149493
0.00112604
-0.00280019
-0.00198379
0.000977637
-0.00198377
-0.00223916
0.000758154
-0.00105101
-0.0022794
0.000424021
-6.3016e-05
-0.00211088
-6.33691e-05
0.000915365
-0.00179653
-0.000539032
0.0017594
-0.00136273
-0.00100045
0.00246801
-0.000810132
-0.00136574
0.00288707
-8.68339e-05
-0.00155412
0.00282712
0.000645945
-0.00140725
0.00238388
0.000955973
-0.00071436
0.0016521
0.000595633
0.00034212
0.000558834
-0.000155575
0.00116778
-0.0009416
-0.000897233
0.00133228
-0.00248958
-0.00129413
0.00098696
-0.00380847
-0.0012935
0.000409239
-0.0047672
-0.000908832
-0.000270078
-0.00532033
-0.00103949
-0.00535857
-0.000520842
0.00138042
-0.00132507
-0.000844994
0.00154551
-0.00153012
-0.00107829
0.00143686
-0.00143797
-0.00117473
0.00117043
-0.00117471
-0.00109322
0.000787671
-0.000815438
-0.000870274
0.000289281
-0.000374735
-0.000633152
-0.000312079
0.000194042
-0.000415536
-0.00101667
0.000953971
-0.000250739
-0.00174571
0.00175791
-9.05056e-05
-0.00236742
0.0023714
0.00018215
-0.00273198
0.00255753
0.000544302
-0.00260346
0.00242804
0.000855093
-0.00173822
0.00211477
0.000911321
-0.00028893
0.0015904
0.000711486
0.00100085
0.000748559
0.00038613
0.00154163
-0.000249817
0.000120655
0.00140166
-0.00130918
3.19023e-06
0.00088457
-0.00234297
-2.55603e-05
0.000207533
-0.00320653
-0.000586741
-0.0037034
-0.000188955
0.00141998
0.000246633
-0.000230336
0.00148021
-2.70279e-05
-0.000234019
0.00137277
-0.000161446
-0.000189967
0.00108223
-0.00018995
-5.39093e-05
0.000615279
-0.000156378
0.000200522
-1.13493e-05
-7.06207e-05
0.00050029
-0.000703313
0.000192943
0.00069691
-0.00144395
0.0007318
0.000704813
-0.00222508
0.00145372
0.000572048
-0.00295277
0.00213227
0.000470859
-0.00344205
0.00248494
0.000500471
-0.00341937
0.00258307
0.000660595
-0.00260427
0.0025625
0.000875952
-0.00110582
0.00242033
0.000980277
0.000421094
0.00197291
0.000918565
0.00127486
0.00127146
0.000818436
0.00135202
0.000489964
0.000707895
0.00104085
-0.000297061
0.000486708
0.000597349
-0.00101858
0.000179729
-0.00152152
0.000589663
0.000411586
0.0022818
0.00106959
0.000652137
0.00205356
0.00137486
0.000822376
0.00178273
0.00155006
0.000731697
0.00155007
0.0016635
0.000372509
0.00134569
0.00175514
-0.000177698
0.00117273
0.00188271
-0.000857066
0.00115439
0.00190814
-0.00154502
0.00134982
0.00170219
-0.00228121
0.00179818
0.00125617
-0.00300742
0.00235146
0.000745213
-0.0035652
0.00273443
0.000336737
-0.0036722
0.00294948
9.35333e-05
-0.00297257
0.00312901
0.000100567
-0.00162861
0.00329739
0.000333477
-0.000234033
0.00325257
0.000561359
0.000691906
0.00272306
0.000694434
0.000924734
0.00207775
0.000732063
0.000799472
0.00145458
0.000537671
0.00061698
0.000896487
0.000560465
0.000478916
0.00207132
-0.00229541
0.00475311
0.00317437
-0.00107823
0.00473456
0.00379055
-0.000284308
0.00446661
0.00413143
4.97798e-05
0.00413144
0.00425232
8.40033e-05
0.00377706
0.00416291
-6.98783e-05
0.00342103
0.00391453
-0.000467914
0.00305985
0.00350751
-0.000990697
0.00282002
0.00285657
-0.00163559
0.00283659
0.00193644
-0.00233478
0.00307002
0.000904776
-0.00295525
0.00328373
-8.24653e-05
-0.00319658
0.00346725
-0.0008587
-0.00268988
0.00376161
-0.00123914
-0.00167518
0.00418676
-0.00111135
-0.000720689
0.00449827
-0.000655864
-0.000108829
0.00436415
-0.000192075
9.25358e-05
0.00372456
0.000113844
0.000122856
0.00307723
0.000167577
0.000162674
0.00254837
0.000366264
0.0021343
0.00329772
-0.00552871
0.00421645
0.00504767
-0.00326408
0.00584765
0.00606292
-0.00188856
0.00652525
0.00656853
-0.000961406
0.00656852
0.00667913
-0.000384447
0.00629288
0.0064624
-7.75403e-05
0.00582995
0.00589898
2.37237e-05
0.00518618
0.00503083
-8.99154e-05
0.00451272
0.00383848
-0.000438454
0.00405293
0.00236417
-0.00100576
0.00387683
0.000791019
-0.00166881
0.00379164
-0.000720238
-0.00208315
0.00382593
-0.00192972
-0.00191892
0.00416623
-0.00259643
-0.00144492
0.00477355
-0.00268707
-0.00106111
0.00537508
-0.00228332
-0.000921015
0.00565432
-0.00162491
-0.000970865
0.00540063
-0.000981731
-0.00101042
0.00475162
-0.000496932
-0.00091173
0.00411487
-0.000699771
0.00364369
0.00292538
-0.00788163
0.000865062
0.00465632
-0.00498235
0.00381117
0.00569423
-0.00326512
0.00545953
0.0062172
-0.00200738
0.00621719
0.00633416
-0.00105112
0.00628063
0.0061028
-0.000257567
0.00578725
0.005566
0.000316055
0.00503264
0.00474825
0.000646478
0.00427623
0.00355934
0.000776644
0.00377857
0.00200381
0.0005602
0.00355936
0.00030331
-8.53953e-05
0.00339987
-0.00126743
-0.000850779
0.00340886
-0.00245603
-0.00116705
0.00371665
-0.00316341
-0.00124497
0.00436634
-0.0034257
-0.00138014
0.00512583
-0.00331265
-0.00164856
0.00572167
-0.00289842
-0.00198712
0.00597846
-0.0022121
-0.00230075
0.00583638
-0.00132471
-0.00248929
0.0053748
-0.00275502
0.00487719
0.00160618
-0.00869787
-0.00230977
0.00267164
-0.00560807
0.00102252
0.0032064
-0.00375263
0.00281544
0.00342398
-0.00244252
0.00342397
0.00346993
-0.00142078
0.00317941
0.00342816
-0.000564433
0.00248285
0.00331814
0.00024622
0.00158227
0.00295212
0.00123255
0.000730055
0.00223776
0.00208823
0.000325609
0.00119454
0.00222927
0.000363601
0.000227819
0.00122226
0.000431893
-0.000672687
8.26143e-06
0.00072193
-0.00143481
-0.00063912
0.00118184
-0.00193749
-0.00106689
0.00188154
-0.00226182
-0.00147611
0.00278398
-0.00245743
-0.0019724
0.00370972
-0.00246145
-0.00255067
0.0044436
-0.00214285
-0.00315677
0.00482899
-0.00138841
-0.00367661
0.00480821
-0.00434499
0.00429781
-0.00093174
-0.0069732
-0.00522857
-0.00132691
-0.00447541
-0.00288253
-0.00172482
-0.00289878
-0.00178964
-0.00200506
-0.00188197
-0.00200508
-0.00210801
-0.00101689
-0.00306034
-0.00199731
-0.0001273
-0.00458566
-0.00157867
0.000616829
-0.00614177
-0.000639589
0.00138971
-0.00721863
0.000457326
0.00239126
-0.00756912
0.00122879
0.00286002
-0.00725584
0.00192153
0.00177484
-0.00690787
0.00210564
0.000785891
-0.00610003
0.00209144
4.10827e-05
-0.00485967
0.00197805
-0.000644196
-0.00349659
0.00172506
-0.00118161
-0.00213418
0.00127963
-0.00167732
-0.000816544
0.000698928
-0.00222387
0.000409924
0.000162717
-0.00283933
0.00141765
-5.94949e-05
-0.00353481
0.00209443
-0.0041502
0.00219385
-0.00616392
-0.0084045
-0.00975678
-0.00896547
-0.0117766
-0.0105878
-0.0127176
-0.0127176
-0.0126974
-0.0150555
-0.0116558
-0.0174148
-0.00956354
-0.0196793
-0.00631763
-0.0215222
-0.0016943
-0.0224328
0.00353259
-0.0223754
0.0073323
-0.0214085
0.00979054
-0.0195993
0.0111384
-0.0173282
0.0115584
-0.0149249
0.011247
-0.0125162
0.0102827
-0.0101364
0.00867311
-0.00778697
0.00640488
-0.00541193
0.00346101
-0.00296451
-0.000732235
0.000233569
-8.32615e-05
-0.00396573
-3.63546e-05
0.000526839
-0.00369773
-0.000548172
0.000761578
-0.00305004
-0.00105105
0.000758157
-0.00223912
-0.00137329
0.000644402
-0.00137324
-0.00144109
0.000430953
-0.000426228
-0.00131622
6.103e-05
0.000729415
-0.00115572
-0.00041323
0.00201211
-0.00102589
-0.000896366
0.00323454
-0.000920077
-0.00128255
0.00406383
-0.000573793
-0.00145377
0.00393465
-8.46224e-05
-0.00127076
0.0031655
0.000104432
-0.000570957
0.00203401
-0.00025662
0.000409614
0.000510235
-0.000914783
0.000908132
-0.00119163
-0.00143468
0.000768543
-0.00273828
-0.00166423
0.000307817
-0.00388677
-0.00152705
-0.00029414
-0.00461022
-0.00102798
-0.000872428
-0.00494689
-0.00152235
-0.00486412
-0.000329244
0.000344025
-0.00142316
-0.000536739
0.000716587
-0.00151244
-0.00070437
0.00085728
-0.00136612
-0.000815466
0.000787673
-0.0010932
-0.000775386
0.000564185
-0.00077536
-0.000550047
0.000209736
-0.000378899
-0.000269477
-0.000279068
0.000253554
-9.91261e-05
-0.000930641
0.00130104
-0.000149951
-0.00161558
0.00252798
-0.000317078
-0.00222978
0.00348582
-0.00027403
-0.00260646
0.00366724
3.10495e-05
-0.00249328
0.00334554
0.000420241
-0.00165178
0.00280642
0.000632301
-0.000299328
0.00208723
0.000540549
0.000735192
0.00101318
0.000273355
0.00101662
-0.000230763
3.54529e-05
0.000706762
-0.00147026
-0.000100572
8.47109e-05
-0.00258579
-0.000114898
-0.000671967
-0.00339261
-0.00158093
-0.00375964
-0.000189614
0.000302054
0.000478145
-0.000209275
0.000582117
0.000127026
-0.000192659
0.000695656
-1.6517e-05
-0.000156398
0.00061528
-5.38924e-05
-3.8307e-05
0.000327944
-3.82898e-05
0.000216489
-0.000160275
4.45588e-05
0.000533799
-0.000747592
0.000344147
0.000706532
-0.00142739
0.00105584
0.000565345
-0.0021261
0.00210549
0.000196029
-0.00281447
0.00308635
-3.1321e-05
-0.00333899
0.00344492
4.69756e-05
-0.00337247
0.00338406
0.000375179
-0.00259469
0.00317726
0.000795262
-0.00117891
0.00287982
0.00104282
0.000166928
0.00229353
0.00105808
0.000846423
0.00142631
0.000976893
0.000792322
0.000485528
0.000844256
0.00036234
-0.000442082
0.000573035
-0.000179741
-0.0012396
-0.000739905
-0.0017895
0.000567118
-0.000613016
0.00262972
0.000956512
-3.63438e-05
0.00228253
0.00121644
0.000271855
0.0019465
0.00134568
0.00037251
0.00166351
0.00142641
0.000166406
0.00142642
0.00151894
-0.000306069
0.00122594
0.0016644
-0.000922914
0.00118422
0.00168812
-0.00157954
0.00147826
0.00138085
-0.00221812
0.00219751
0.000757832
-0.00286426
0.00302436
0.000186217
-0.00347225
0.00343941
-0.000117839
-0.00366683
0.00354801