/*--------------------------------*- C++ -*----------------------------------*\
| =========                 |                                                 |
| \\      /  F ield         | OpenFOAM: The Open Source CFD Toolbox           |
|  \\    /   O peration     | Version:  1.7.1                                 |
|   \\  /    A nd           | Web:      www.OpenFOAM.com                      |
|    \\/     M anipulation  |                                                 |
\*---------------------------------------------------------------------------*/
FoamFile
{
    version     2.0;
    format      ascii;
    class       volVectorField;
    location    "400";
    object      U;
}
// * * * * * * * * * * * * * * * * * * * * * * * * * * * * * * * * * * * * * //

dimensions      [0 1 -1 0 0 0 0];

internalField   nonuniform List<vector> 
4000
(
(-0.00437292 0.00837049 -0.004373)
(-0.00685778 0.00590334 -0.00323749)
(-0.0100218 0.00360496 -0.00146103)
(-0.0125068 0.0010589 7.09241e-05)
(-0.0139865 -0.00136705 0.000816218)
(-0.0135732 -0.00295428 0.001105)
(-0.0120157 -0.00388739 0.00135466)
(-0.00989096 -0.00451248 0.00152524)
(-0.0071981 -0.00500997 0.00157388)
(-0.00395538 -0.00537546 0.00148394)
(-0.00041081 -0.00548977 0.00127504)
(0.00320433 -0.00498737 0.000981538)
(0.00577738 -0.00342058 0.000644945)
(0.00643701 -0.00140866 0.000309282)
(0.00510966 0.000182013 -0.000118687)
(0.00251635 0.0011933 -0.000670066)
(0.000239978 0.00177835 -0.00133475)
(-0.000109367 0.00254147 -0.00215351)
(0.000453608 0.00435062 -0.00347796)
(0.00245281 0.00779504 -0.00456243)
(-0.00244182 0.012397 -0.00244185)
(-0.0028471 0.00959543 -0.00227287)
(-0.0041849 0.00681777 -0.00172965)
(-0.00462328 0.00393376 -0.00120136)
(-0.00482445 0.000747662 -0.000800294)
(-0.0051401 -0.00248987 -0.000348122)
(-0.00481195 -0.00482867 2.97228e-06)
(-0.00376949 -0.00623927 0.000291474)
(-0.00239205 -0.00730704 0.000534593)
(-0.000805674 -0.00800237 0.000641876)
(0.000943562 -0.00797649 0.000631288)
(0.00262693 -0.00664838 0.000530325)
(0.00380259 -0.00355056 0.000310997)
(0.0040492 0.000618635 -1.43586e-05)
(0.00297131 0.00435928 -0.000468618)
(0.000966348 0.00626051 -0.0010607)
(-0.00109669 0.00674114 -0.00172344)
(-0.00186593 0.00710286 -0.00224906)
(-0.00212795 0.0083663 -0.00265804)
(0.00108243 0.0119413 -0.00199463)
(-0.000812758 0.0156029 -0.000812757)
(0.000229232 0.0122653 -0.000884487)
(1.37081e-05 0.0088255 -0.000760754)
(0.000552774 0.00518815 -0.000696528)
(0.00111947 0.00155301 -0.000664786)
(0.00206338 -0.00167252 -0.000617207)
(0.00313209 -0.004277 -0.000261454)
(0.00357857 -0.00655386 0.000241969)
(0.00351473 -0.00859809 0.000650737)
(0.00326796 -0.00993831 0.000872777)
(0.00296009 -0.0101663 0.000970966)
(0.00259114 -0.00886157 0.00100819)
(0.00217188 -0.0056446 0.00105042)
(0.00169679 -0.00080147 0.00108782)
(0.000871746 0.00477074 0.000761541)
(-0.000418965 0.0080838 7.31512e-05)
(-0.00181371 0.00922819 -0.000690001)
(-0.00228854 0.00979905 -0.00118183)
(-0.00273565 0.0107454 -0.00151371)
(0.000416117 0.0144962 -0.000603744)
(0.000956003 0.0141473 0.000956014)
(0.00377725 0.0109747 0.000965045)
(0.00541561 0.00776977 0.000979546)
(0.00705443 0.00412396 0.000963145)
(0.00827787 0.00032779 0.00103358)
(0.0096366 -0.003166 0.00156569)
(0.0101732 -0.00566957 0.0021738)
(0.0096993 -0.00750114 0.00246582)
(0.00845271 -0.00904453 0.00247233)
(0.00659617 -0.0102536 0.00235368)
(0.00446562 -0.0107211 0.00220809)
(0.00247875 -0.00978803 0.00215487)
(0.000776975 -0.0071163 0.0023765)
(-0.000613097 -0.00265261 0.00290235)
(-0.00189452 0.0033353 0.00310529)
(-0.00267775 0.00775031 0.0021755)
(-0.0028809 0.00915199 0.000915738)
(-0.00246657 0.0100215 0.000182516)
(-0.00270178 0.0108049 -0.00031028)
(8.73507e-05 0.0141321 0.000307275)
(0.00359033 0.0087609 0.00359034)
(0.00855159 0.00631132 0.00386772)
(0.012497 0.00357715 0.00419627)
(0.015423 9.74056e-05 0.00472751)
(0.0171675 -0.00373884 0.00544395)
(0.016968 -0.00690922 0.00586651)
(0.0152049 -0.00917785 0.00574043)
(0.0128355 -0.0107013 0.00515129)
(0.0101884 -0.0116342 0.0044828)
(0.00716016 -0.0122751 0.00389099)
(0.00414368 -0.0126266 0.00337823)
(0.00174116 -0.0119794 0.00314756)
(-0.000214414 -0.0100568 0.00345546)
(-0.00202053 -0.00672298 0.00433368)
(-0.00355938 -0.00227382 0.00536894)
(-0.00424045 0.00240473 0.00533712)
(-0.00358541 0.00593809 0.00348109)
(-0.00233842 0.00707512 0.00203078)
(-0.00227118 0.00853523 0.00105543)
(-0.000106297 0.0114419 0.00118059)
(0.00501842 -0.0137737 0.00501842)
(0.0106515 -0.0127967 0.00606323)
(0.0140511 -0.0134024 0.00684097)
(0.015057 -0.0147686 0.00721255)
(0.0139297 -0.0163463 0.00702445)
(0.0116849 -0.0177799 0.00623451)
(0.00937797 -0.01869 0.00502654)
(0.00773684 -0.0188334 0.00385838)
(0.00623655 -0.0181341 0.00332349)
(0.00431478 -0.0175202 0.00299562)
(0.00250649 -0.0176098 0.00254304)
(0.00159773 -0.0172032 0.00240857)
(0.000952238 -0.0159846 0.00282427)
(0.000163887 -0.0139495 0.00373355)
(-0.00086684 -0.0112537 0.00501298)
(-0.00188901 -0.00846119 0.00628191)
(-0.00259391 -0.0047966 0.00674711)
(-0.0017628 0.000837063 0.0049105)
(-0.00138382 0.00406861 0.00286768)
(-0.000141025 0.00699585 0.00231804)
(0.00272476 -0.0271775 0.00272474)
(0.00615259 -0.025221 0.00435569)
(0.00555334 -0.0248954 0.00478499)
(0.00401878 -0.0254003 0.00435865)
(0.00181573 -0.0264393 0.00329364)
(0.000213874 -0.0275868 0.00184338)
(-0.00018621 -0.0282784 0.000404194)
(0.000759116 -0.0279073 -0.000544058)
(0.00155539 -0.026306 -0.000388348)
(0.00188685 -0.0250197 -0.000230368)
(0.00229803 -0.0251375 -0.00054975)
(0.00372311 -0.0247739 -0.000451214)
(0.00497186 -0.023708 0.00014064)
(0.0055991 -0.0220184 0.00104467)
(0.00539941 -0.0200004 0.00218974)
(0.00433356 -0.0178767 0.00354281)
(0.00244451 -0.0152243 0.00510839)
(0.000827437 -0.0112034 0.00631826)
(-0.000540414 -0.00316856 0.00534283)
(0.000212589 0.00136419 0.00399043)
(0.000442625 -0.0309504 0.000442615)
(0.000704231 -0.0295413 0.0018879)
(-0.00388206 -0.0295998 0.00109736)
(-0.00696709 -0.0307022 -0.000378689)
(-0.00908325 -0.0321952 -0.00208518)
(-0.00935984 -0.0336527 -0.00377479)
(-0.0077227 -0.0345675 -0.00519826)
(-0.00438728 -0.0343379 -0.00599119)
(-0.00141619 -0.0328501 -0.00554493)
(0.00150607 -0.0314884 -0.00511477)
(0.00398819 -0.0316291 -0.00538285)
(0.0075805 -0.0310672 -0.00501937)
(0.0105832 -0.0297444 -0.00415988)
(0.0125124 -0.0278339 -0.00307255)
(0.013116 -0.0255993 -0.00181659)
(0.012333 -0.0232589 -0.000451731)
(0.0102262 -0.0207868 0.00106721)
(0.00718901 -0.0175985 0.0028567)
(0.00300617 -0.0128555 0.00484628)
(0.00150684 -0.00712445 0.0055971)
(-0.00291062 -0.0264523 -0.00291064)
(-0.00673229 -0.0261022 -0.00243612)
(-0.0135501 -0.0268551 -0.00456743)
(-0.0172714 -0.0284104 -0.00677364)
(-0.0188096 -0.0300568 -0.00903221)
(-0.0178511 -0.0314525 -0.011235)
(-0.0145022 -0.0322971 -0.0131422)
(-0.0091801 -0.0323512 -0.0142354)
(-0.00409059 -0.0313898 -0.0137804)
(0.00229384 -0.0304635 -0.0131091)
(0.00696882 -0.0306624 -0.01328)
(0.0126132 -0.0300515 -0.0124563)
(0.0171048 -0.0287018 -0.0110222)
(0.0200517 -0.0268649 -0.00932629)
(0.0213275 -0.0247169 -0.00752254)
(0.0208889 -0.0223993 -0.00568198)
(0.0187565 -0.0199288 -0.0037956)
(0.0148622 -0.0169927 -0.00176503)
(0.00894735 -0.0133715 0.000742803)
(0.00446965 -0.00980652 0.00359037)
(-0.00815021 -0.0179009 -0.00815023)
(-0.015878 -0.0168027 -0.0104198)
(-0.0240605 -0.0162265 -0.0144425)
(-0.0282556 -0.0161602 -0.0183789)
(-0.0296011 -0.0160952 -0.022236)
(-0.0279699 -0.015843 -0.0258982)
(-0.0233584 -0.01523 -0.0291314)
(-0.0161166 -0.0140785 -0.0314506)
(-0.00845718 -0.012426 -0.031746)
(0.00353701 -0.0113873 -0.031167)
(0.0117069 -0.0128732 -0.0306546)
(0.0197104 -0.0139044 -0.0283825)
(0.0256421 -0.0143566 -0.0253886)
(0.0292809 -0.0143856 -0.0220979)
(0.03072 -0.0141075 -0.0186797)
(0.0300152 -0.0135927 -0.0151766)
(0.027127 -0.0128353 -0.0115513)
(0.0220157 -0.0116706 -0.00774947)
(0.0144731 -0.00982679 -0.00371482)
(0.0073931 -0.00717826 0.000593255)
(-0.0032374 0.0059033 -0.00685791)
(-0.00613583 0.00515315 -0.00613592)
(-0.00919942 0.00410011 -0.00408397)
(-0.0112159 0.00274104 -0.00142756)
(-0.0126641 0.000823427 0.000834946)
(-0.0130553 -0.00112012 0.00224124)
(-0.0119478 -0.00248396 0.00306401)
(-0.00997284 -0.0033951 0.00358207)
(-0.0073765 -0.0041068 0.00381962)
(-0.00420978 -0.0046706 0.00374949)
(-0.000706996 -0.00500193 0.00336958)
(0.00292573 -0.00472545 0.00276201)
(0.00561547 -0.00321954 0.00201459)
(0.00632966 -0.000924939 0.00107811)
(0.00509291 0.0011147 -0.000197317)
(0.00248278 0.00266667 -0.00206854)
(9.49117e-05 0.00371814 -0.00471173)
(-0.000750383 0.00437068 -0.00785653)
(-0.000842401 0.00463328 -0.0114213)
(0.000122709 0.00442636 -0.0137083)
(-0.00227285 0.0095954 -0.00284712)
(-0.00348264 0.00829162 -0.00348264)
(-0.00488729 0.00665186 -0.00310509)
(-0.00535394 0.00478817 -0.00227991)
(-0.0054332 0.00242864 -0.00133447)
(-0.00523294 -0.000304393 -0.000447682)
(-0.0047871 -0.00291372 0.000407491)
(-0.00382482 -0.00497695 0.00116672)
(-0.00249446 -0.00656978 0.00178103)
(-0.000916379 -0.00772724 0.00213052)
(0.000817376 -0.00820251 0.00218402)
(0.00251908 -0.00733973 0.00202315)
(0.00380118 -0.00451676 0.00166035)
(0.00417685 -0.000181293 0.00100169)
(0.00343152 0.00396413 -0.00015499)
(0.00183943 0.00618501 -0.00143399)
(0.000224994 0.00693212 -0.00281157)
(-0.000314811 0.00723611 -0.00429633)
(-0.000457061 0.00770385 -0.00621293)
(0.000465382 0.00849243 -0.00700053)
(-0.000884489 0.0122653 0.00022926)
(-0.000531973 0.0104043 -0.000531941)
(-0.000748798 0.00813272 -0.0006979)
(-0.000410151 0.00548842 -0.000735578)
(6.01845e-05 0.00246356 -0.000674109)
(0.000777468 -0.000793846 -0.000570431)
(0.00176552 -0.00372772 -5.10477e-05)
(0.00244097 -0.00628794 0.000780221)
(0.00278364 -0.00853179 0.00156736)
(0.00285438 -0.0102538 0.00215109)
(0.00274735 -0.0110129 0.00250876)
(0.00254148 -0.0102036 0.00273184)
(0.00231371 -0.00726833 0.00294121)
(0.0020757 -0.00235431 0.00303495)
(0.0017824 0.00330525 0.00243236)
(0.00115569 0.0067773 0.00124494)
(0.000226518 0.00796881 3.98888e-05)
(-0.000102592 0.00851507 -0.000973725)
(-0.000404363 0.00949789 -0.00233805)
(0.000425648 0.0116581 -0.00279382)
(0.000965034 0.0109747 0.00377729)
(0.00340562 0.00913524 0.00340566)
(0.00503659 0.00706475 0.00315129)
(0.00643789 0.00439327 0.00287752)
(0.00736274 0.00116363 0.00264968)
(0.00821331 -0.00214857 0.00284991)
(0.00882944 -0.0048622 0.00337573)
(0.00872306 -0.00701854 0.0038141)
(0.00790862 -0.0089801 0.00409935)
(0.00643075 -0.0106682 0.00430477)
(0.00448909 -0.0115906 0.00447017)
(0.00244902 -0.0110721 0.00469906)
(0.00061107 -0.00852668 0.00525098)
(-0.000751665 -0.00390235 0.00607023)
(-0.0014205 0.00169691 0.00633884)
(-0.00122884 0.00579836 0.00512189)
(-0.000898994 0.00709513 0.00346829)
(-0.000579586 0.00791101 0.00225896)
(-0.000783447 0.00934272 0.000882823)
(0.000139032 0.0126511 0.00037095)
(0.00386771 0.00631133 0.00855162)
(0.00871219 0.00488603 0.00871222)
(0.0125983 0.00344569 0.00884466)
(0.0153304 0.00147992 0.00905951)
(0.0172419 -0.000953939 0.00951586)
(0.0179219 -0.0031338 0.00990317)
(0.0170018 -0.00486735 0.00989357)
(0.014983 -0.00642359 0.00943187)
(0.0121884 -0.0080352 0.00871832)
(0.00879648 -0.0095819 0.00804757)
(0.00509234 -0.0106143 0.00756999)
(0.00157859 -0.0104858 0.00743104)
(-0.00158699 -0.00858464 0.00803313)
(-0.00396073 -0.00504322 0.00926682)
(-0.00503909 -0.00105216 0.0103013)
(-0.00453037 0.00229577 0.00988123)
(-0.00289261 0.00417621 0.00770059)
(-0.00162732 0.00522229 0.00574709)
(-0.00136034 0.00713181 0.00398051)
(-0.0001962 0.0107781 0.00316817)
(0.00606323 -0.0127967 0.0106514)
(0.0124607 -0.00993024 0.0124607)
(0.0171707 -0.00857211 0.0137498)
(0.0197866 -0.00807722 0.014575)
(0.0204494 -0.00797703 0.014907)
(0.0195946 -0.00794275 0.0146592)
(0.0176551 -0.00780127 0.0138386)
(0.014986 -0.00777641 0.0126711)
(0.0116549 -0.00808625 0.0115145)
(0.00773472 -0.00880685 0.0105418)
(0.00361671 -0.00970684 0.00973568)
(-2.43761e-05 -0.00999508 0.00931072)
(-0.00308203 -0.0091723 0.00976127)
(-0.00516919 -0.0075067 0.0109257)
(-0.00623829 -0.00564041 0.0122022)
(-0.00618014 -0.00403224 0.012949)
(-0.00499028 -0.00222859 0.012362)
(-0.00278107 0.000611332 0.00985723)
(-0.00177741 0.0030314 0.00720117)
(-0.000567861 0.00651015 0.00587371)
(0.00435569 -0.025221 0.00615257)
(0.0104509 -0.0205706 0.0104509)
(0.0126523 -0.0177883 0.0127809)
(0.0133576 -0.0158633 0.013791)
(0.012782 -0.0145381 0.0137602)
(0.0117091 -0.0134381 0.0129476)
(0.010445 -0.0122437 0.0117593)
(0.00897185 -0.0110671 0.0106928)
(0.00689949 -0.0101222 0.0101525)
(0.00423586 -0.00989071 0.00973187)
(0.00146695 -0.0105634 0.0089996)
(-0.000567352 -0.0111699 0.00852497)
(-0.00201723 -0.011337 0.00883854)
(-0.00297649 -0.011147 0.00975276)
(-0.00370965 -0.0107928 0.0109183)
(-0.00427846 -0.0103437 0.0120139)
(-0.00451455 -0.00942644 0.0127208)
(-0.00380442 -0.00735675 0.012469)
(-0.0025695 -0.00272087 0.0103544)
(-0.000773586 0.000760769 0.00841281)
(0.0018879 -0.0295412 0.000704209)
(0.00690291 -0.0246725 0.00690289)
(0.00546634 -0.0219128 0.00904157)
(0.00416978 -0.020152 0.0091095)
(0.00272848 -0.0189727 0.00789548)
(0.00206041 -0.0178835 0.00606526)
(0.00215126 -0.0164232 0.0043437)
(0.00258803 -0.0148059 0.00337334)
(0.00254367 -0.0129137 0.00379105)
(0.00202039 -0.012086 0.00409864)
(0.00140332 -0.0129659 0.00337657)
(0.00176219 -0.0138586 0.00315231)
(0.0022614 -0.01439 0.00378416)
(0.00263498 -0.0146762 0.00488534)
(0.00246947 -0.0147535 0.00625231)
(0.00154234 -0.0147245 0.00766898)
(-8.66316e-06 -0.0143249 0.00899648)
(-0.0011635 -0.0131128 0.0100164)
(-0.00203984 -0.0103491 0.0105947)
(-0.000370753 -0.00707905 0.0101423)
(-0.00243611 -0.0261022 -0.00673233)
(-0.000570372 -0.0222901 -0.000570408)
(-0.00617307 -0.0207821 -0.000305562)
(-0.00907516 -0.0204511 -0.00215815)
(-0.0108562 -0.0204203 -0.00510599)
(-0.0107836 -0.0202495 -0.00834769)
(-0.00890086 -0.0197105 -0.011099)
(-0.00542691 -0.0187999 -0.0122313)
(-0.00198648 -0.0171365 -0.011034)
(0.00184213 -0.0164943 -0.00986786)
(0.00464365 -0.017506 -0.0106503)
(0.00815143 -0.0178558 -0.0102566)
(0.0109012 -0.0177096 -0.00866408)
(0.0125554 -0.0171695 -0.00653044)
(0.0129526 -0.016466 -0.00417049)
(0.0119643 -0.0157774 -0.00175448)
(0.00934231 -0.0150194 0.00070484)
(0.00592797 -0.0138707 0.003122)
(0.00211269 -0.0117042 0.00572049)
(0.0016331 -0.00935137 0.00788146)
(-0.0104198 -0.0168027 -0.015878)
(-0.0172224 -0.0126012 -0.0172225)
(-0.0257176 -0.00955736 -0.02213)
(-0.0300732 -0.00753506 -0.0276946)
(-0.0317817 -0.00586435 -0.0334547)
(-0.0306258 -0.0042924 -0.0390445)
(-0.026472 -0.00260666 -0.043973)
(-0.0193668 -0.000588352 -0.0475454)
(-0.0109359 0.00191396 -0.0484569)
(0.00368265 0.00343411 -0.0477588)
(0.01341 0.000834767 -0.0466503)
(0.0215982 -0.00133875 -0.0431038)
(0.0271597 -0.00304585 -0.0384414)
(0.0301625 -0.00445484 -0.0332817)
(0.0308538 -0.00569018 -0.0279274)
(0.0293146 -0.00686065 -0.0224394)
(0.0254739 -0.00801782 -0.0167064)
(0.0193541 -0.00889059 -0.0104972)
(0.0109094 -0.00877657 -0.00350694)
(0.00478187 -0.00705399 0.00320713)
(-0.00146096 0.00360488 -0.010022)
(-0.00408392 0.0041001 -0.00919949)
(-0.0071533 0.00361056 -0.00715332)
(-0.00909637 0.00289099 -0.00418607)
(-0.010301 0.00180021 -0.00101195)
(-0.0108711 0.000273018 0.00167013)
(-0.0104408 -0.00122486 0.00353001)
(-0.00894304 -0.00234349 0.00480985)
(-0.00682238 -0.00321921 0.0056299)
(-0.00414329 -0.00390818 0.0059209)
(-0.00105425 -0.00431841 0.00559526)
(0.00223971 -0.00407764 0.00477095)
(0.00474181 -0.00247478 0.0035601)
(0.005237 0.000158239 0.00176241)
(0.00359352 0.00254914 -0.00104519)
(0.000574492 0.00390116 -0.005001)
(-0.00195426 0.00388466 -0.00951096)
(-0.00291648 0.00281727 -0.0137219)
(-0.00288047 0.00114349 -0.0172364)
(-0.00134468 -0.000923084 -0.0187613)
(-0.00172964 0.00681773 -0.00418495)
(-0.0031051 0.00665185 -0.0048873)
(-0.00450198 0.00573806 -0.00450196)
(-0.0050384 0.00458002 -0.00349118)
(-0.00500967 0.00305561 -0.00219545)
(-0.00458464 0.0010296 -0.0008301)
(-0.00391728 -0.00133449 0.00057902)
(-0.00305805 -0.00363866 0.00195048)
(-0.00199998 -0.0056101 0.00315572)
(-0.000790714 -0.00712841 0.00398929)
(0.000592646 -0.00790781 0.00426643)
(0.00209886 -0.00725715 0.00411366)
(0.0033919 -0.00443418 0.00361394)
(0.00388635 0.00014454 0.00257744)
(0.00343266 0.00430046 0.000742279)
(0.00213924 0.0062891 -0.00147812)
(0.000783155 0.00645059 -0.00392728)
(0.000171541 0.00544237 -0.0064814)
(-6.58319e-05 0.00381128 -0.00900037)
(0.000282224 0.00161244 -0.0102091)
(-0.000760762 0.00882548 1.37247e-05)
(-0.000697938 0.00813271 -0.000748767)
(-0.000954343 0.00677703 -0.000954303)
(-0.000814302 0.00498301 -0.000905336)
(-0.000436116 0.00273625 -0.00073167)
(0.000200422 7.87319e-05 -0.000478512)
(0.00124122 -0.00265519 0.000209101)
(0.00208804 -0.00527859 0.00136197)
(0.0025447 -0.00780357 0.00264507)
(0.00259759 -0.00993821 0.00375257)
(0.00243571 -0.0111553 0.00444338)
(0.00230309 -0.0106922 0.0048299)
(0.00231725 -0.00779793 0.00510095)
(0.00246359 -0.00268757 0.0051102)
(0.00268919 0.00293291 0.00419074)
(0.00248072 0.0061067 0.0024929)
(0.00191025 0.00691422 0.000672405)
(0.00159823 0.00650988 -0.00107605)
(0.00125137 0.00565431 -0.00299571)
(0.000954757 0.00480476 -0.00410198)
(0.000979533 0.00776976 0.00541565)
(0.00315125 0.00706475 0.00503663)
(0.00464573 0.00606431 0.00464577)
(0.0057096 0.00437424 0.00423079)
(0.00638509 0.00194351 0.00379345)
(0.00683695 -0.00101004 0.00357714)
(0.00738762 -0.00378202 0.00382483)
(0.00754584 -0.00624187 0.00427721)
(0.00712079 -0.00863814 0.00489786)
(0.00596176 -0.0108414 0.00559486)
(0.00422098 -0.0122977 0.00616908)
(0.0023628 -0.0121803 0.0066842)
(0.000737213 -0.00962517 0.00747241)
(-0.000284409 -0.00474391 0.00846323)
(-0.000423422 0.000862139 0.00874348)
(0.000324345 0.00471672 0.00723122)
(0.000887134 0.00580589 0.00527606)
(0.00124351 0.00593701 0.00360451)
(0.00117525 0.00600259 0.00188086)
(0.000829968 0.00652293 0.000794968)
(0.00419626 0.00357715 0.012497)
(0.00884464 0.00344569 0.0125983)
(0.0124317 0.00317685 0.0124317)
(0.0146831 0.00228484 0.0121251)
(0.0160006 0.000726261 0.0118966)
(0.0165654 -0.00116303 0.0116813)
(0.0159429 -0.00304507 0.0111584)
(0.0143869 -0.00503745 0.0104114)
(0.0120913 -0.00724245 0.00972466)
(0.00904676 -0.00944341 0.00930903)
(0.00540185 -0.011095 0.00910407)
(0.0017118 -0.0113832 0.00921942)
(-0.00176336 -0.00931326 0.0102202)
(-0.00419464 -0.00528217 0.0119526)
(-0.00500898 -0.00113633 0.0133126)
(-0.00404678 0.00187696 0.0128833)
(-0.00208439 0.00320419 0.0105359)
(-0.000679466 0.00376056 0.00830754)
(-6.60466e-05 0.00465671 0.00634959)
(0.000224587 0.00630872 0.00520758)
(0.00684097 -0.0134024 0.0140511)
(0.0137498 -0.00857211 0.0171707)
(0.018814 -0.00563165 0.018814)
(0.0218354 -0.00391505 0.0194637)
(0.0231118 -0.00304008 0.0193913)
(0.0228763 -0.00260402 0.0186124)
(0.0212691 -0.00256725 0.0171935)
(0.0185044 -0.00316895 0.0153991)
(0.0147571 -0.00452752 0.0137137)
(0.0101403 -0.00639676 0.0124096)
(0.00500543 -0.00820031 0.0113956)
(1.40687e-05 -0.00899013 0.0109357)
(-0.00447124 -0.00790694 0.0118493)
(-0.00737049 -0.00568419 0.0138592)
(-0.00859206 -0.00361842 0.0158761)
(-0.0081205 -0.00227331 0.0169084)
(-0.00618202 -0.00132286 0.0160759)
(-0.0035253 7.30856e-07 0.0134208)
(-0.00191775 0.00138566 0.0107445)
(-0.000693847 0.00357966 0.00925099)
(0.00478499 -0.0248954 0.00555332)
(0.0127809 -0.0177883 0.0126523)
(0.0164701 -0.0133487 0.0164701)
(0.0185257 -0.0100692 0.0181227)
(0.0190292 -0.0076041 0.018154)
(0.018457 -0.00566843 0.0169775)
(0.0170437 -0.00418474 0.01516)
(0.0148485 -0.00339004 0.0134296)
(0.0117109 -0.00342921 0.012323)
(0.00750452 -0.00428544 0.0114956)
(0.00276675 -0.00569236 0.0103103)
(-0.00166323 -0.00675492 0.00945903)
(-0.00521027 -0.00691252 0.0101035)
(-0.00751795 -0.00662313 0.0119812)
(-0.00877742 -0.00651165 0.0141987)
(-0.00907794 -0.00667452 0.0160509)
(-0.00845199 -0.00675988 0.0170064)
(-0.00673192 -0.00606666 0.0165686)
(-0.00430744 -0.00385243 0.0145297)
(-0.00170293 -0.00176087 0.012629)
(0.00109737 -0.0295998 -0.0038821)
(0.00904159 -0.0219128 0.00546631)
(0.00952504 -0.0170783 0.00952501)
(0.00987447 -0.013276 0.0102326)
(0.00944033 -0.0101557 0.00876635)
(0.00898018 -0.00732546 0.0061809)
(0.00855971 -0.00460572 0.00363112)
(0.00803689 -0.0022389 0.00238578)
(0.00679942 -0.000525774 0.00278536)
(0.00446811 -0.000331786 0.00310713)
(0.00182451 -0.00211756 0.00200915)
(-0.000152693 -0.0041326 0.0012912)
(-0.00175788 -0.0057556 0.00215806)
(-0.00288189 -0.00709399 0.00426246)
(-0.00382407 -0.00849556 0.0069193)
(-0.00476136 -0.00996816 0.00957689)
(-0.00553392 -0.0111601 0.0118438)
(-0.00555342 -0.0115897 0.0133992)
(-0.00474601 -0.010951 0.013959)
(-0.00162482 -0.0102111 0.0134331)
(-0.00456742 -0.026855 -0.0135502)
(-0.000305531 -0.0207821 -0.00617312)
(-0.00416794 -0.0175737 -0.00416798)
(-0.0055347 -0.0156636 -0.0058776)
(-0.00685516 -0.014036 -0.00940275)
(-0.00691467 -0.0122039 -0.0134181)
(-0.00572146 -0.0100893 -0.0169423)
(-0.00292685 -0.00789515 -0.018431)
(1.11841e-05 -0.00483577 -0.017792)
(0.00249255 -0.00420658 -0.0167947)
(0.00421194 -0.00705333 -0.016413)
(0.00641555 -0.00910572 -0.0158436)
(0.00777039 -0.0104726 -0.0137218)
(0.008397 -0.0112297 -0.0108502)
(0.00820394 -0.0117241 -0.0075203)
(0.00701865 -0.0122398 -0.00400961)
(0.00498316 -0.012769 -0.000348871)
(0.00260462 -0.0130563 0.00336904)
(-9.24548e-05 -0.0127329 0.00656354)
(0.000529016 -0.0120133 0.00875228)
(-0.0144425 -0.0162265 -0.0240606)
(-0.0221299 -0.00955735 -0.0257177)
(-0.03132 -0.00510634 -0.0313201)
(-0.0357457 -0.00209979 -0.0382298)
(-0.0373761 0.000324182 -0.0456044)
(-0.036001 0.00251563 -0.0528273)
(-0.031353 0.00473174 -0.0591405)
(-0.0233067 0.00727155 -0.0637339)
(-0.0130733 0.010299 -0.0650272)
(0.00417787 0.0123028 -0.0641481)
(0.0162602 0.00896647 -0.062663)
(0.025459 0.00594895 -0.0580317)
(0.0313483 0.00347923 -0.0519199)
(0.0341969 0.00131854 -0.0450517)
(0.0345379 -0.000691016 -0.0379438)
(0.0325983 -0.00269829 -0.0307329)
(0.0283838 -0.0048073 -0.023325)
(0.0218385 -0.00700121 -0.0155048)
(0.012799 -0.00884453 -0.0071283)
(0.00521893 -0.00894574 0.00108495)
(7.09404e-05 0.00105882 -0.012507)
(-0.00142756 0.00274102 -0.011216)
(-0.0041861 0.00289099 -0.00909636)
(-0.00623989 0.00252988 -0.00623982)
(-0.00749141 0.00191602 -0.00290573)
(-0.00798448 0.000920068 0.000471435)
(-0.00793622 -0.000356858 0.00339706)
(-0.00696615 -0.00158355 0.00562966)
(-0.00557675 -0.00263168 0.00735833)
(-0.00381062 -0.00341916 0.00831775)
(-0.00157124 -0.00380022 0.00812402)
(0.00100426 -0.00342504 0.00698711)
(0.00311332 -0.00156867 0.0050516)
(0.00332478 0.00138949 0.00213182)
(0.00103082 0.00330925 -0.00233357)
(-0.00194557 0.00327989 -0.00774457)
(-0.00401086 0.0019233 -0.0126466)
(-0.00469242 0.000132067 -0.016427)
(-0.00420658 -0.00177107 -0.0188642)
(-0.00194317 -0.00371317 -0.0192278)
(-0.00120138 0.0039337 -0.00462332)
(-0.00227995 0.00478816 -0.00535393)
(-0.00349123 0.00458002 -0.00503837)
(-0.00409492 0.00391457 -0.00409486)
(-0.00410115 0.00296107 -0.00277922)
(-0.00351983 0.00163989 -0.00120949)
(-0.00264776 -0.000170396 0.000644185)
(-0.00178747 -0.00251164 0.0027651)
(-0.00112652 -0.00480469 0.00487523)
(-0.000625482 -0.00661919 0.00646243)
(6.10953e-05 -0.00755452 0.00701794)
(0.00118079 -0.00693296 0.00678107)
(0.00246062 -0.00399028 0.0060096)
(0.00326687 0.000680526 0.00453427)
(0.00311024 0.00439337 0.0019847)
(0.00207141 0.00558339 -0.00110092)
(0.00087439 0.00462856 -0.00442353)
(0.0001865 0.00251705 -0.0076929)
(-0.000197998 -0.00015458 -0.0104995)
(0.000116854 -0.00355614 -0.0122988)
(-0.000696549 0.00518812 0.000552793)
(-0.000735627 0.00548841 -0.000410113)
(-0.000905391 0.00498302 -0.000814255)
(-0.000859182 0.00389787 -0.000859122)
(-0.000565667 0.00235283 -0.000700395)
(8.11551e-05 0.000408853 -0.00038854)
(0.0012356 -0.00184757 0.000463511)
(0.00221782 -0.00438691 0.00203266)
(0.00260881 -0.00710405 0.00403286)
(0.00230299 -0.00955311 0.00589196)
(0.00175727 -0.0110847 0.00697775)
(0.00155768 -0.010802 0.00743398)
(0.00185077 -0.00784351 0.00757302)
(0.00254092 -0.00264023 0.00730724)
(0.00333901 0.00255626 0.00599113)
(0.00348452 0.00508465 0.00384031)
(0.00313745 0.00513478 0.0014794)
(0.00273593 0.00373553 -0.000933175)
(0.00214343 0.00175281 -0.00323077)
(0.00151613 -0.000303591 -0.00474854)
(0.000963129 0.00412396 0.00705449)
(0.00287747 0.00439327 0.00643794)
(0.00423074 0.00437424 0.00570965)
(0.00504756 0.00352706 0.0050476)
(0.00550483 0.00183678 0.00443255)
(0.00578405 -0.000547473 0.00390446)
(0.00633846 -0.00306427 0.00392536)
(0.00672785 -0.00560249 0.00449635)
(0.00651615 -0.00826235 0.00567166)
(0.00534718 -0.0108164 0.00712057)
(0.00350812 -0.0126654 0.00822648)
(0.00175858 -0.01283 0.00897215)
(0.000481821 -0.0102348 0.00973036)
(2.01638e-05 -0.00523599 0.0105146)
(0.000521432 0.000163105 0.0105336)
(0.00169911 0.00361194 0.0088216)
(0.00236105 0.00429547 0.00671166)
(0.00264636 0.00362943 0.00471065)
(0.00238612 0.0026121 0.00283688)
(0.00148326 0.00182721 0.00139537)
(0.0047275 9.74275e-05 0.015423)
(0.00905949 0.00147994 0.0153305)
(0.0121251 0.00228485 0.0146831)
(0.0138215 0.0021916 0.0138215)
(0.0145975 0.00121753 0.0129034)
(0.0147103 -0.000462784 0.0119954)
(0.0141123 -0.00246319 0.0109563)
(0.0130283 -0.00472578 0.0101275)
(0.011299 -0.00720026 0.00988075)
(0.00856587 -0.00968788 0.0102091)
(0.0049901 -0.011712 0.0106166)
(0.00136739 -0.0122981 0.0110901)
(-0.00198745 -0.0101481 0.0121647)
(-0.00410029 -0.00591381 0.0138002)
(-0.00453193 -0.00168097 0.0150345)
(-0.00329989 0.00118434 0.0145826)
(-0.00126632 0.00221057 0.0123151)
(9.23174e-05 0.0021985 0.0100447)
(0.000718228 0.00208689 0.00815233)
(0.000555422 0.00252899 0.00677916)
(0.00721255 -0.0147685 0.015057)
(0.014575 -0.00807722 0.0197866)
(0.0194637 -0.00391505 0.0218354)
(0.0221352 -0.00139304 0.0221352)
(0.0231715 -0.000170312 0.0214697)
(0.0230176 0.000191046 0.0201578)
(0.0216487 -0.000208604 0.0182504)
(0.0191585 -0.00148701 0.0161146)
(0.0156301 -0.0034871 0.0144172)
(0.0109623 -0.00585435 0.0134443)
(0.00549282 -0.00813516 0.0128015)
(-2.04366e-05 -0.00928652 0.012629)
(-0.00508365 -0.00804503 0.0137128)
(-0.00830941 -0.00538377 0.0158668)
(-0.00958055 -0.00301112 0.01801)
(-0.00897855 -0.00168188 0.0190254)
(-0.00688763 -0.00122204 0.0181024)
(-0.00426609 -0.00084479 0.0156537)
(-0.00236215 -0.000384234 0.013245)
(-0.000941466 0.000784995 0.0116348)
(0.00435866 -0.0254003 0.00401875)
(0.013791 -0.0158633 0.0133575)
(0.0181227 -0.0100692 0.0185257)
(0.0208723 -0.00598033 0.0208723)
(0.0219714 -0.0030748 0.0211086)
(0.0217802 -0.00106204 0.0198324)
(0.0204354 0.000115374 0.0176522)
(0.0181012 0.000493963 0.0153871)
(0.014683 2.09228e-05 0.0138665)
(0.00983744 -0.00142734 0.0130178)
(0.00400084 -0.003689 0.0120606)
(-0.0019022 -0.00534574 0.0114206)
(-0.00683946 -0.0053775 0.0122061)
(-0.010072 -0.00468052 0.014333)
(-0.0117101 -0.00432029 0.0168601)
(-0.0119345 -0.00460399 0.0188827)
(-0.0109879 -0.00528412 0.0197806)
(-0.00893459 -0.00574305 0.019241)
(-0.00609522 -0.00547115 0.0174866)
(-0.00277365 -0.00532578 0.0157629)
(-0.00037868 -0.0307022 -0.00696714)
(0.00910952 -0.0201519 0.00416973)
(0.0102326 -0.013276 0.00987443)
(0.0115837 -0.00790775 0.0115836)
(0.0119852 -0.0036637 0.0106068)
(0.0119891 -0.000188587 0.00835731)
(0.0118461 0.00270565 0.00591899)
(0.0110275 0.00468991 0.00376269)
(0.00926443 0.00604446 0.00299431)
(0.00609478 0.00606234 0.00311013)
(0.00238373 0.00374501 0.00288482)
(-0.000863927 0.000917845 0.00305355)
(-0.00380972 -0.00127153 0.00390999)
(-0.00596372 -0.00271698 0.00604691)
(-0.00737803 -0.00436202 0.00898453)
(-0.00829734 -0.0064883 0.0120149)
(-0.00869009 -0.00876271 0.0144745)
(-0.00811288 -0.010791 0.015865)
(-0.00649269 -0.012323 0.0160172)
(-0.00242005 -0.0143002 0.0147855)
(-0.00677362 -0.0284103 -0.0172715)
(-0.00215812 -0.0204511 -0.00907522)
(-0.00587755 -0.0156636 -0.00553476)
(-0.00652959 -0.0122699 -0.00652964)
(-0.00725998 -0.00911252 -0.0100017)
(-0.00714266 -0.00590914 -0.0144862)
(-0.0066584 -0.00259619 -0.0196273)
(-0.00409897 0.000697104 -0.0227726)
(-0.000309348 0.00460575 -0.0234081)
(0.00322688 0.00532163 -0.0223247)
(0.00565759 0.00146651 -0.0215911)
(0.00739253 -0.00258919 -0.0191894)
(0.00733229 -0.00564283 -0.0151129)
(0.00710923 -0.00750383 -0.0114456)
(0.00650572 -0.00880787 -0.00738273)
(0.00527901 -0.0100244 -0.00311966)
(0.00346587 -0.0113252 0.000984125)
(0.00159799 -0.0126725 0.0044738)
(-0.000513123 -0.0140032 0.00712225)
(0.000554833 -0.0155126 0.00818992)
(-0.0183789 -0.0161602 -0.0282556)
(-0.0276945 -0.00753505 -0.0300733)
(-0.0382297 -0.00209978 -0.0357458)
(-0.0431144 0.00152532 -0.0431145)
(-0.0447163 0.00438523 -0.0511613)
(-0.0429539 0.00692541 -0.0591687)
(-0.0374405 0.00945157 -0.0662266)
(-0.0280595 0.0124912 -0.071644)
(-0.0157663 0.0162431 -0.0739184)
(0.00459703 0.0190289 -0.0734236)
(0.0197494 0.0145829 -0.0707833)
(0.0305005 0.0107393 -0.0654448)
(0.0371049 0.00774224 -0.0584858)
(0.0399262 0.00511671 -0.050544)
(0.0399461 0.00266302 -0.0424419)
(0.0376169 0.000191018 -0.0343724)
(0.033064 -0.00245324 -0.0262948)
(0.0262095 -0.00533038 -0.0180088)
(0.0165599 -0.00850737 -0.00933057)
(0.00747171 -0.0110476 -0.00131706)
(0.000816197 -0.00136711 -0.0139866)
(0.000834901 0.000823404 -0.0126641)
(-0.00101203 0.00180022 -0.0103009)
(-0.00290585 0.00191602 -0.00749132)
(-0.00438746 0.0017058 -0.00438732)
(-0.00495972 0.00112343 -0.000975518)
(-0.00500443 7.58408e-05 0.00278783)
(-0.00439189 -0.00120373 0.0064064)
(-0.00388121 -0.00237235 0.00958266)
(-0.00351806 -0.00318195 0.0116661)
(-0.00268425 -0.00341267 0.0114671)
(-0.00110381 -0.00276169 0.00961156)
(0.000433642 -0.000754008 0.00662353)
(0.000355009 0.00206118 0.00190814)
(-0.0019196 0.00243248 -0.00388928)
(-0.00410357 0.00129237 -0.00949958)
(-0.00551962 -0.000196954 -0.0138201)
(-0.00575472 -0.00174308 -0.0166892)
(-0.00474367 -0.00321851 -0.0180413)